mFile = /home/x_iubru/qchem_exe/bin/mpi/machines
Process 0 of 1 is on n1773 - thread support 0
initial socket setup ...start
initial socket setup ...done 
now start server 0 ... 
Q-Chem Developer Version!
                  Welcome to Q-Chem
     A Quantum Leap Into The Future Of Chemistry


 Q-Chem 5.1, Q-Chem, Inc., Pleasanton, CA (2018)

 Yihan Shao,  Zhengting Gan,  E. Epifanovsky,  A. T. B. Gilbert,  M. Wormit,  
 J. Kussmann,  A. W. Lange,  A. Behn,  Jia Deng,  Xintian Feng,  D. Ghosh,  
 M. Goldey,  P. R. Horn,  L. D. Jacobson,  I. Kaliman,  T. Kus,  A. Landau,  
 Jie Liu,  E. I. Proynov,  R. M. Richard,  R. P. Steele,  E. J. Sundstrom,  
 H. L. Woodcock III,  P. M. Zimmerman,  D. Zuev,  B. Albrecht,  E. Alguire,  
 S. A. Baeppler,  D. Barton,  Z. Benda,  Y. A. Bernard,  E. J. Berquist,  
 K. B. Bravaya,  H. Burton,  D. Casanova,  Chun-Min Chang,  Yunqing Chen,  
 A. Chien,  K. D. Closser,  M. P. Coons,  S. Coriani,  S. Dasgupta,  
 A. L. Dempwolff,  M. Diedenhofen,  Hainam Do,  R. G. Edgar,  Po-Tung Fang,  
 S. Faraji,  S. Fatehi,  Qingguo Feng,  K. D. Fenk,  J. Fosso-Tande,  
 Qinghui Ge,  A. Ghysels,  G. Gidofalvi,  J. Gomes,  J. Gonthier,  A. Gunina,  
 D. Hait,  M. W. D. Hanson-Heine,  P. H. P. Harbach,  A. W. Hauser,  
 J. E. Herr,  E. G. Hohenstein,  Z. C. Holden,  Kerwin Hui,  B. C. Huynh,  
 T.-C. Jagau,  Hyunjun Ji,  B. Kaduk,  K. Khistyaev,  Jaehoon Kim,  
 P. Klunzinger,  K. Koh,  D. Kosenkov,  L. Koulias,  T. Kowalczyk,  
 C. M. Krauter,  A. Kunitsa,  Ka Un Lao,  A. Laurent,  K. V. Lawler,  
 Joonho Lee,  D. Lefrancois,  S. Lehtola,  D. S. Levine,  Yi-Pei Li,  
 You-Sheng Lin,  Fenglai Liu,  E. Livshits,  A. Luenser,  P. Manohar,  
 E. Mansoor,  S. F. Manzer,  Shan-Ping Mao,  Yuezhi Mao,  N. Mardirossian,  
 A. V. Marenich,  T. Markovich,  L. A. Martinez-Martinez,  S. A. Maurer,  
 N. J. Mayhall,  S. C. McKenzie,  J.-M. Mewes,  A. F. Morrison,  
 J. W. Mullinax,  K. Nanda,  T. S. Nguyen-Beck,  R. Olivares-Amaya,  
 J. A. Parkhill,  T. M. Perrine,  F. Plasser,  P. Pokhilko,  S. Prager,  
 A. Prociuk,  E. Ramos,  D. R. Rehn,  F. Rob,  M. Schneider,  N. Sergueev,  
 S. M. Sharada,  S. Sharma,  D. W. Small,  T. Stauch,  T. Stein,  
 Yu-Chuan Su,  A. J. W. Thom,  A. Tkatchenko,  T. Tsuchimochi,  N. M. Tubman,  
 L. Vogt,  M. L. Vidal,  O. Vydrov,  M. A. Watson,  J. Wenzel,  
 M. de Wergifosse,  T. A. Wesolowski,  A. White,  J. Witte,  A. Yamada,  
 Jun Yang,  K. Yao,  S. Yeganeh,  S. R. Yost,  Zhi-Qiang You,  A. Zech,  
 Igor Ying Zhang,  Xing Zhang,  Yan Zhao,  Ying Zhu,  B. R. Brooks,  
 G. K. L. Chan,  C. J. Cramer,  M. S. Gordon,  W. J. Hehre,  A. Klamt,  
 M. W. Schmidt,  C. D. Sherrill,  D. G. Truhlar,  A. Aspuru-Guzik,  R. Baer,  
 A. T. Bell,  N. A. Besley,  Jeng-Da Chai,  A. E. DePrince, III,  
 R. A. DiStasio Jr.,  A. Dreuw,  B. D. Dunietz,  T. R. Furlani,  
 Chao-Ping Hsu,  Yousung Jung,  Jing Kong,  D. S. Lambrecht,  WanZhen Liang,  
 C. Ochsenfeld,  V. A. Rassolov,  L. V. Slipchenko,  J. E. Subotnik,  
 T. Van Voorhis,  J. M. Herbert,  A. I. Krylov,  P. M. W. Gill,  M. Head-Gordon

 Contributors to earlier versions of Q-Chem not listed above: 
 R. D. Adamson,  B. Austin,  J. Baker,  G. J. O. Beran,  K. Brandhorst,  
 S. T. Brown,  E. F. C. Byrd,  A. K. Chakraborty,  C.-L. Cheng,  
 Siu Hung Chien,  D. M. Chipman,  D. L. Crittenden,  H. Dachsel,  
 R. J. Doerksen,  A. D. Dutoi,  L. Fusti-Molnar,  W. A. Goddard III,  
 A. Golubeva-Zadorozhnaya,  S. R. Gwaltney,  G. Hawkins,  A. Heyden,  
 S. Hirata,  G. Kedziora,  F. J. Keil,  C. Kelley,  Jihan Kim,  R. A. King,  
 R. Z. Khaliullin,  P. P. Korambath,  W. Kurlancheek,  A. M. Lee,  M. S. Lee,  
 S. V. Levchenko,  Ching Yeh Lin,  D. Liotard,  R. C. Lochan,  I. Lotan,  
 P. E. Maslen,  N. Nair,  D. P. O'Neill,  D. Neuhauser,  E. Neuscamman,  
 C. M. Oana,  R. Olson,  B. Peters,  R. Peverati,  P. A. Pieniazek,  
 Y. M. Rhee,  J. Ritchie,  M. A. Rohrdanz,  E. Rosta,  N. J. Russ,  
 H. F. Schaefer III,  N. E. Schultz,  N. Shenvi,  A. C. Simmonett,  A. Sodt,  
 D. Stuck,  K. S. Thanthiriwatte,  V. Vanovschi,  Tao Wang,  A. Warshel,  
 C. F. Williams,  Q. Wu,  X. Xu,  W. Zhang

 Please cite Q-Chem as follows:
 Y. Shao et al., Mol. Phys. 113, 184-215 (2015)
 DOI: 10.1080/00268976.2014.952696

 Q-Chem 5.1.1 for Intel X86 EM64T Linux

 Parts of Q-Chem use Armadillo 8.300.2 (Tropical Shenanigans).
 http://arma.sourceforge.net/

 Q-Chem begins on Fri May 24 17:06:25 2019  

Host: n1773
0

     Scratch files written to /scratch/local/qchem37685//
 Parallel job on  1  processors
Input Ideriv = 2
Curr. Ideriv = -1
Max.  Ideriv = 2

Checking the input file for inconsistencies... 	...done.

--------------------------------------------------------------
User input:
--------------------------------------------------------------
$molecule
0 1
S       -0.000001    0.232169   -0.446822
C       -1.330149   -0.799770    0.184043
C        1.330149   -0.799770    0.184040
H       -2.257664   -0.292990   -0.051734
H       -1.214715   -0.877868    1.259777
H       -1.305844   -1.774520   -0.291125
H        2.257665   -0.292987   -0.051737
H        1.305846   -1.774519   -0.291130
H        1.214716   -0.877870    1.259774
O        0.000000    1.471662    0.388354
$end

$rem
method				cvs-adc(2)-x
ee_singlets			10
max_scf_cycles			200
basis				gen
purecart			1111
cc_symmetry			false
symmetry			false
threads				30
mem_total			90000
mem_static			2000
adc_davidson_maxsubspace	200
adc_davidson_maxiter		500
cc_rest_occ			2
$end

$basis
****
O     0 
aug-cc-pVTZ
****
S     0 
aug-cc-pVTZ
****
H     0
cc-pVDZ
****
C     0
cc-pVTZ
****
$end
--------------------------------------------------------------
 ----------------------------------------------------------------
             Standard Nuclear Orientation (Angstroms)
    I     Atom           X                Y                Z
 ----------------------------------------------------------------
    1      S       0.0000003801     0.2322069452     0.4468022788
    2      C       1.3301483511    -0.7997867745    -0.1839732658
    3      C      -1.3301496489    -0.7997848822    -0.1839732389
    4      H       2.2576634481    -0.2929873375     0.0517615699
    5      H       1.2147154976    -0.8779763919    -1.2597007336
    6      H       1.3058421267    -1.7744962485     0.2912777968
    7      H      -2.2576655519    -0.2929811258     0.0517595235
    8      H      -1.3058478733    -1.7744933906     0.2912798779
    9      H      -1.2147155024    -0.8779766638    -1.2597004484
   10      O       0.0000011951     1.4716287470    -0.3884793774
 ----------------------------------------------------------------
 Molecular Point Group                 C1    NOp =  1
 Largest Abelian Subgroup              C1    NOp =  1
 Nuclear Repulsion Energy =   185.0382560586 hartrees
 There are       21 alpha and       21 beta electrons
 Requested basis set is non-standard
 There are 68 shells and 186 basis functions

 Total QAlloc Memory Limit  90000 MB
 Mega-Array Size      1956 MB
 MEM_STATIC part      2000 MB

                       Distance Matrix (Angstroms)
             S (  1)   C (  2)   C (  3)   H (  4)   H (  5)   H (  6)
   C (  2)  1.797827
   C (  3)  1.797828  2.660298
   H (  4)  2.351367  1.082913  3.631090
   H (  5)  2.370694  1.084725  2.763990  1.774792
   H (  6)  2.399222  1.084672  2.850330  1.777133  1.793763
   H (  7)  2.351369  3.631092  1.082915  4.515329  3.757603  3.866632
   H (  8)  2.399223  2.850332  1.084672  3.866632  3.092333  2.611690
   H (  9)  2.370695  2.763989  1.084725  3.757600  2.429431  3.092328
   O ( 10)  1.494611  2.640160  2.640160  2.899090  2.784816  3.564354
             H (  7)   H (  8)   H (  9)
   H (  8)  1.777134
   H (  9)  1.774793  1.793763
   O ( 10)  2.899089  3.564355  2.784817
 
 A cutoff of  1.0D-11 yielded   2336 shell pairs
 There are     17646 function pairs (     23452 Cartesian)
 
 -------------------------------------------------------
 OpenMP Integral Computing Module                       
 Release: version 1.0, May 2013, Q-Chem Inc. Pittsburgh 
 -------------------------------------------------------
 Integral Job Info:
 Integral job number is                      11
 Integral operator is                         1
 short-range coefficients                     0
 long-range coefficients              100000000
 Omega coefficients                           0
 if combine SR and LR in K                    0
 Integral screening is                        0
 Integral computing path is                   2
 max size of driver memory is            800000
 size of driver memory is                776718
 size of scratch memory is             29531563
 max col of scratch BK array              10000
 max len of scratch array in speh3          662
 max len of scratch index in speh4           32
 max int batch size is                      520
 min int batch size is                       52
 fixed nKL is                                31
 max L of basis functions is                  3
 order of int derivative is                   0
 number of shells is                         68
 number of basis is                         214
 number of cartesian basis is               214
 number of contracted shell pairs          2336
 number of primitive shell pairs          11139
 maxK2 (contraction) of shell pair          169
 max number of K2 of shell pair               1
 max number of CS2 of shell pair            276
 max number of PS2 of shell pair           1014
 mem total for path MDJ                  576424
 -------------------------------------------------------
 Smallest overlap matrix eigenvalue = 4.42E-04

 Scale SEOQF with 1.000000e-01/1.000000e-01/1.000000e-01

 Standard Electronic Orientation quadrupole field applied
 Nucleus-field energy     =     0.0000000029 hartrees
 Guess MOs from core Hamiltonian diagonalization
 A restricted Hartree-Fock SCF calculation will be
 performed using Pulay DIIS extrapolation
 SCF converges when DIIS error is below 1.0E-08
 using 30 threads for integral computing
 -------------------------------------------------------
 OpenMP Integral computing Module                
 Release: version 2.0, May 2017, Q-Chem Inc. Pleasanton 
 -------------------------------------------------------
 ---------------------------------------
  Cycle       Energy         DIIS Error
 ---------------------------------------
    1    -451.4679287309      1.23E-01
    2    -357.7854816910      8.20E-02
    3    -479.4258926563      1.04E-01
    4    -488.9913627583      1.05E-01
    5    -488.6164749470      1.05E-01
    6    -488.5496039093      1.04E-01
    7    -488.7653561697      1.05E-01
    8    -490.0485658944      1.04E-01
    9    -405.7486910359      9.40E-02
   10    -518.3358962632      8.47E-02
   11    -529.3484119537      7.52E-02
   12    -536.7767408408      6.07E-02
   13    -549.2888355982      2.65E-02
   14    -550.6082997306      1.62E-02
   15    -551.4290384685      6.26E-03
   16    -551.6334002217      1.10E-03
   17    -551.6406378817      4.29E-04
   18    -551.6421092777      1.49E-04
   19    -551.6423853793      4.04E-05
   20    -551.6424087685      1.36E-05
   21    -551.6424110590      3.93E-06
   22    -551.6424113307      1.35E-06
   23    -551.6424113596      3.97E-07
   24    -551.6424113623      9.88E-08
   25    -551.6424113623      2.65E-08
   26    -551.6424113625      7.54E-09 Convergence criterion met
 ---------------------------------------
 SCF time:  CPU 361.35 s  wall 12.31 s
 SCF   energy in the final basis set = -551.64241136
 Total energy in the final basis set = -551.64241136
================================================================================
|                                                                              |
|                                 A D C  M A N                                 |
|                                                                              |
 ------------------------------------------------------------------------------ 
|                                                                              |
| Components:                                                                  |
|                                                                              |
| - libvmm - 1.3-trunk                                                         |
|   Authors:                                                                   |
|   Evgeny Epifanovsky, Ilya Kaliman                                           |
|                                                                              |
| - libtensor - 2.5-trunk                                                      |
|   Authors:                                                                   |
|   Evgeny Epifanovsky, Michael Wormit, Dmitry Zuev, Sam Manzer,               |
|   Ilya Kaliman                                                               |
|                                                                              |
| - libwfa - 1.1-beta                                                          |
|   Authors:                                                                   |
|   Felix Plasser, Stefanie Baeppler, Benjamin Thomitzni, Michael Wormit       |
|                                                                              |
| - libadc - 1.1-trunk                                                         |
|   Authors:                                                                   |
|   Michael Wormit, Adrian L. Dempwolff, Philipp H. P. Harbach,                |
|   Caroline Krauter, Dirk Rehn, Matthias Schneider, Jan Wenzel                |
|                                                                              |
| - adcman - 2.6-trunk                                                         |
|   Authors:                                                                   |
|   Michael Wormit, Adrian L. Dempwolff, Philipp H. P. Harbach,                |
|   Caroline Krauter, Daniel Lefrancois, Jan-Michael Mewes, Dirk Rehn,         |
|   Matthias Schneider, Jan Wenzel, Andreas Dreuw                              |
|                                                                              |
| Authors of earlier versions of ADCMAN:                                       |
| Andreas Dreuw, Jan Hendrik Starcke, Dirk Rehn, Michael Wormit                |
|                                                                              |
================================================================================

 

--------------------------------------------------------------------------------
                                   HF Summary                                   
--------------------------------------------------------------------------------
  Energy:                                                 -551.6424113625 a.u.
  Dip. moment [a.u.]:                  [  -0.000001,   -1.805894,    0.253167]
  Total dipole [Debye]:                                               4.635012
  <r^2> [a.u.]:                        [ 156.038137,  148.546265,   53.996737]
  Total <r^2> [a.u.]:                                               358.581139
--------------------------------------------------------------------------------

--------------------------------------------------------------------------------
                                 MP(2) Summary                                  
--------------------------------------------------------------------------------
  MP energy contribution:                                   -0.8534856148 a.u.
  Total energy:                                           -552.4958969773 a.u.
  Dip. moment [a.u.]:                  [  -0.000001,   -1.570157,    0.146063]
  Total dipole [Debye]:                                               4.008172
  <r^2> [a.u.]:                        [ 156.219553,  148.036474,   54.077952]
  Total <r^2> [a.u.]:                                               358.333979
--------------------------------------------------------------------------------
  Starting Davidson for singlet states of irrep A ... 
--------------------------------------------------------------------------------
   It NVec Conv  Avg. Norm  Max. Norm  Conv. states           Remark
--------------------------------------------------------------------------------
        10    0  5.226e-01  1.673e+00 20.3933 n n n n n n n n Guess.
    1   20    0  1.948e-01  8.991e-01 19.6415 n n n n n n n n 
    2   30    0  5.609e-02  2.575e-01 19.5585 n n n n n n n n 
    3   40    0  2.153e-02  8.804e-02 19.5469 n n n n n n n n 
    4   50    0  1.782e-02  7.924e-02 19.5426 n n n n n n n n 
    5   60    0  1.380e-02  6.556e-02 19.5399 n n n n n n n n 
    6   70    0  1.047e-02  5.601e-02 19.5389 n n n n n n n n 
    7   80    0  6.999e-03  4.587e-02 19.5386 n n n n n n n n 
    8   90    0  7.104e-03  5.381e-02 19.5385 n n n n n n n n 
    9  100    0  7.272e-03  6.432e-02 19.5384 n n n n n n n n 
   10  110    0  4.573e-03  4.133e-02 19.5384 n n n n n n n n 
   11  120    0  2.217e-03  1.978e-02 19.5384 n n n n n n n n 
   12  130    0  1.185e-03  9.705e-03 19.5384 n n n n n n n n 
   13  140    0  7.719e-04  5.135e-03 19.5384 n n n n n n n n 
   14  150    0  5.578e-04  4.869e-03 19.5384 n n n n n n n n 
   15  160    0  4.406e-04  4.200e-03 19.5384 n n n n n n n n 
   16  170    0  2.652e-04  2.585e-03 19.5384 n n n n n n n n 
   17  180    0  1.296e-04  1.265e-03 19.5384 n n n n n n n n 
   18  190    0  6.312e-05  6.196e-04 19.5384 n n n n n n n n 
   19  200    1  2.511e-05  2.472e-04 19.5384 y n n n n n n n 
   20   20    4  1.398e-05  1.385e-04 19.5384 y n y y y n n n Subspace collapsed.
   21   30    4  7.086e-06  7.036e-05 19.5384 y n y y y n n n 
   22   40    7  3.662e-06  3.646e-05 19.5384 y y y y y n y y 
   23   50    8  1.716e-06  1.708e-05 19.5384 y y y y y y y y 
   24   60    9  7.849e-07  7.807e-06 19.5384 y y y y y y y y 
   25   70    9  4.434e-07  4.412e-06 19.5384 y y y y y y y y 
   26   80    9  2.666e-07  2.656e-06 19.5384 y y y y y y y y 
   27   90    9  2.320e-07  2.313e-06 19.5384 y y y y y y y y 
   28  100    9  2.330e-07  2.327e-06 19.5384 y y y y y y y y 
   29  110    9  2.327e-07  2.325e-06 19.5384 y y y y y y y y 
   30  120    9  1.983e-07  1.982e-06 19.5384 y y y y y y y y 
   31  130    9  1.597e-07  1.597e-06 19.5384 y y y y y y y y 
   32  140    9  1.606e-07  1.606e-06 19.5384 y y y y y y y y 
   33  150    9  1.565e-07  1.565e-06 19.5384 y y y y y y y y 
   34  160    9  1.213e-07  1.213e-06 19.5384 y y y y y y y y 
   35  170   10  8.841e-08  8.839e-07 19.5384 y y y y y y y y Converged.
--------------------------------------------------------------------------------
  Davidson Summary: 
 ------------------------------------------------------------
  State  0: excitation energy =  19.5384 a.u.   (converged)
  State  1: excitation energy =  19.5581 a.u.   (converged)
  State  2: excitation energy =  19.5887 a.u.   (converged)
  State  3: excitation energy =  19.6022 a.u.   (converged)
  State  4: excitation energy =  19.6132 a.u.   (converged)
  State  5: excitation energy =  19.6258 a.u.   (converged)
  State  6: excitation energy =  19.6414 a.u.   (converged)
  State  7: excitation energy =  19.6772 a.u.   (converged)
  State  8: excitation energy =  19.6932 a.u.   (converged)
  State  9: excitation energy =  19.6938 a.u.   (converged)
 ------------------------------------------------------------


--------------------------------------------------------------------------------
                             Excited State Summary
--------------------------------------------------------------------------------
--------------------------------------------------------------------------------

  Excited state 1 (singlet, A)                                     [converged]
  ----------------------------------------------------------------------------
  Term symbol:  2 (1) A                                     R^2 =  4.98923e-12

  Total energy:                                           -532.9574959048 a.u.
  Excitation energy:                                             531.666932 eV

  Osc. strength:                                                      0.019247
  Trans. dip. moment [a.u.]:           [  -0.000000,    0.027090,   -0.027271]
  <i|r^2|0> [a.u.]:                    [   0.004624,   -0.146476,   -0.035967]


  V1^2 = 0.7758, V2^2 = 0.2242

  Important amplitudes:
     core i     occ j       vir a       vir b          v   
    --------------------------------------------------------
     2 (A) A               26 (A) A                 -0.4513
     2 (A) A               29 (A) A                  0.2297
    --------------------------------------------------------
  ----------------------------------------------------------------------------


  Excited state 2 (singlet, A)                                     [converged]
  ----------------------------------------------------------------------------
  Term symbol:  3 (1) A                                     R^2 =  2.47659e-10

  Total energy:                                           -532.9377973729 a.u.
  Excitation energy:                                             532.202957 eV

  Osc. strength:                                                      0.009675
  Trans. dip. moment [a.u.]:           [   0.027241,    0.000000,   -0.000000]
  <i|r^2|0> [a.u.]:                    [  -0.000000,   -0.000000,   -0.000000]


  V1^2 = 0.7628, V2^2 = 0.2372

  Important amplitudes:
     core i     occ j       vir a       vir b          v   
    --------------------------------------------------------
     2 (A) A               23 (A) A                  0.3921
     2 (A) A               27 (A) A                 -0.3427
    --------------------------------------------------------
  ----------------------------------------------------------------------------


  Excited state 3 (singlet, A)                                     [converged]
  ----------------------------------------------------------------------------
  Term symbol:  4 (1) A                                     R^2 =  1.59950e-11

  Total energy:                                           -532.9071510325 a.u.
  Excitation energy:                                             533.036886 eV

  Osc. strength:                                                      0.004098
  Trans. dip. moment [a.u.]:           [   0.000000,   -0.012352,    0.012698]
  <i|r^2|0> [a.u.]:                    [   0.000587,    0.069866,    0.019500]


  V1^2 = 0.7619, V2^2 = 0.2381

  Important amplitudes:
     core i     occ j       vir a       vir b          v   
    --------------------------------------------------------
     2 (A) A               25 (A) A                 -0.4825
     2 (A) A               22 (A) A                 -0.3106
    --------------------------------------------------------
  ----------------------------------------------------------------------------


  Excited state 4 (singlet, A)                                     [converged]
  ----------------------------------------------------------------------------
  Term symbol:  5 (1) A                                     R^2 =  3.59021e-11

  Total energy:                                           -532.8936572624 a.u.
  Excitation energy:                                             533.404070 eV

  Osc. strength:                                                      0.002753
  Trans. dip. moment [a.u.]:           [   0.000000,    0.010526,    0.009992]
  <i|r^2|0> [a.u.]:                    [   0.001084,   -0.057841,    0.015886]


  V1^2 = 0.7626, V2^2 = 0.2374

  Important amplitudes:
     core i     occ j       vir a       vir b          v   
    --------------------------------------------------------
     2 (A) A               24 (A) A                  0.3974
     2 (A) A               22 (A) A                  0.3521
    --------------------------------------------------------
  ----------------------------------------------------------------------------


  Excited state 5 (singlet, A)                                     [converged]
  ----------------------------------------------------------------------------
  Term symbol:  6 (1) A                                     R^2 =  4.71596e-11

  Total energy:                                           -532.8826543772 a.u.
  Excitation energy:                                             533.703474 eV

  Osc. strength:                                                      0.006601
  Trans. dip. moment [a.u.]:           [   0.000000,    0.021968,   -0.004715]
  <i|r^2|0> [a.u.]:                    [   0.000344,   -0.122475,   -0.005905]


  V1^2 = 0.7641, V2^2 = 0.2359

  Important amplitudes:
     core i     occ j       vir a       vir b          v   
    --------------------------------------------------------
     2 (A) A               24 (A) A                  0.3916
     2 (A) A               22 (A) A                 -0.3611
    --------------------------------------------------------
  ----------------------------------------------------------------------------


  Excited state 6 (singlet, A)                                     [converged]
  ----------------------------------------------------------------------------
  Term symbol:  7 (1) A                                     R^2 =  2.92353e-09

  Total energy:                                           -532.8701460118 a.u.
  Excitation energy:                                             534.043844 eV

  Osc. strength:                                                      0.000107
  Trans. dip. moment [a.u.]:           [  -0.002857,    0.000000,   -0.000000]
  <i|r^2|0> [a.u.]:                    [   0.000000,   -0.000000,   -0.000000]


  V1^2 = 0.7607, V2^2 = 0.2393

  Important amplitudes:
     core i     occ j       vir a       vir b          v   
    --------------------------------------------------------
     2 (A) A               23 (A) A                  0.4389
     2 (A) A               27 (A) A                  0.4038
    --------------------------------------------------------
  ----------------------------------------------------------------------------


  Excited state 7 (singlet, A)                                     [converged]
  ----------------------------------------------------------------------------
  Term symbol:  8 (1) A                                     R^2 =  5.17588e-10

  Total energy:                                           -532.8544992886 a.u.
  Excitation energy:                                             534.469613 eV

  Osc. strength:                                                      0.001530
  Trans. dip. moment [a.u.]:           [   0.000000,    0.010119,    0.003802]
  <i|r^2|0> [a.u.]:                    [   0.001261,   -0.056074,    0.007026]


  V1^2 = 0.7573, V2^2 = 0.2427

  Important amplitudes:
     core i     occ j       vir a       vir b          v   
    --------------------------------------------------------
     2 (A) A               29 (A) A                 -0.5015
     2 (A) A               34 (A) A                  0.1506
    --------------------------------------------------------
  ----------------------------------------------------------------------------


  Excited state 8 (singlet, A)                                     [converged]
  ----------------------------------------------------------------------------
  Term symbol:  9 (1) A                                     R^2 =  1.84508e-09

  Total energy:                                           -532.8186806304 a.u.
  Excitation energy:                                             535.444288 eV

  Osc. strength:                                                      0.003025
  Trans. dip. moment [a.u.]:           [   0.000000,    0.005901,    0.013992]
  <i|r^2|0> [a.u.]:                    [   0.001633,   -0.031561,    0.022356]


  V1^2 = 0.7630, V2^2 = 0.2370

  Important amplitudes:
     core i     occ j       vir a       vir b          v   
    --------------------------------------------------------
     2 (A) A               28 (A) A                  0.5704
     2 (A) A               34 (A) A                  0.1230
    --------------------------------------------------------
  ----------------------------------------------------------------------------


  Excited state 9 (singlet, A)                                     [converged]
  ----------------------------------------------------------------------------
  Term symbol:  10 (1) A                                    R^2 =  8.83943e-07

  Total energy:                                           -532.8026555330 a.u.
  Excitation energy:                                             535.880353 eV

  Osc. strength:                                                      0.007306
  Trans. dip. moment [a.u.]:           [   0.023589,    0.000001,    0.000000]
  <i|r^2|0> [a.u.]:                    [  -0.000000,   -0.000004,    0.000000]


  V1^2 = 0.7709, V2^2 = 0.2291

  Important amplitudes:
     core i     occ j       vir a       vir b          v   
    --------------------------------------------------------
     2 (A) A               30 (A) A                  0.4921
     2 (A) A               27 (A) A                  0.2741
    --------------------------------------------------------
  ----------------------------------------------------------------------------


  Excited state 10 (singlet, A)                                     [converged]
  ----------------------------------------------------------------------------
  Term symbol:  11 (1) A                                    R^2 =  1.39370e-08

  Total energy:                                           -532.8021353555 a.u.
  Excitation energy:                                             535.894508 eV

  Osc. strength:                                                      0.006832
  Trans. dip. moment [a.u.]:           [   0.000001,   -0.021462,   -0.007731]
  <i|r^2|0> [a.u.]:                    [  -0.000207,    0.119186,   -0.011129]


  V1^2 = 0.7646, V2^2 = 0.2354

  Important amplitudes:
     core i     occ j       vir a       vir b          v   
    --------------------------------------------------------
     2 (A) A               32 (A) A                  0.3539
     2 (A) A               26 (A) A                 -0.2814
    --------------------------------------------------------
  ----------------------------------------------------------------------------


--------------------------------------------------------------------------------
  Time of ADC calculation:  CPU 36780.48 s  wall 2033.38 s
================================================================================
 
 --------------------------------------------------------------
 
                    Orbital Energies (a.u.)
 --------------------------------------------------------------
 
 Alpha MOs
 -- Occupied --
-92.069 -20.503 -11.261 -11.261  -9.056  -6.738  -6.738  -6.736
 -1.336  -1.069  -0.979  -0.817  -0.647  -0.631  -0.624  -0.588
 -0.564  -0.545  -0.515  -0.419  -0.369
 -- Virtual --
  0.080   0.082   0.083   0.102   0.180   0.192   0.197   0.204
  0.219   0.240   0.244   0.249   0.265   0.290   0.295   0.317
  0.332   0.342   0.359   0.388   0.417   0.432   0.448   0.478
  0.501   0.512   0.564   0.570   0.583   0.638   0.656   0.659
  0.689   0.718   0.733   0.735   0.766   0.791   0.792   0.810
  0.821   0.865   0.904   0.904   0.951   0.964   0.970   0.993
  1.012   1.052   1.072   1.103   1.134   1.174   1.237   1.247
  1.279   1.313   1.327   1.336   1.343   1.383   1.407   1.447
  1.553   1.584   1.586   1.648   1.663   1.679   1.685   1.704
  1.909   1.929   1.968   1.973   2.011   2.022   2.089   2.106
  2.152   2.172   2.200   2.216   2.244   2.250   2.276   2.284
  2.314   2.348   2.376   2.402   2.451   2.470   2.475   2.499
  2.509   2.520   2.531   2.564   2.590   2.609   2.629   2.659
  2.661   2.678   2.720   2.725   2.738   2.752   2.789   2.813
  3.079   3.088   3.160   3.210   3.220   3.271   3.300   3.357
  3.388   3.497   3.528   3.564   3.599   3.608   3.616   3.651
  3.667   3.717   3.735   3.772   3.776   3.850   3.885   3.914
  3.942   3.975   4.023   4.041   4.497   4.576   4.662   4.745
  4.750   4.776   4.806   4.831   5.322   6.624   6.637   6.762
  6.819   6.868   6.880   6.892   7.084   7.182   7.212   7.481
  7.507   7.959   9.018   9.910  11.816
 --------------------------------------------------------------
 
          Ground-State Mulliken Net Atomic Charges

     Atom                 Charge (a.u.)
  ----------------------------------------
      1 S                     0.601180
      2 C                     0.042847
      3 C                     0.042845
      4 H                     0.037620
      5 H                     0.028899
      6 H                     0.021434
      7 H                     0.037621
      8 H                     0.021434
      9 H                     0.028899
     10 O                    -0.862780
  ----------------------------------------
  Sum of atomic charges =    -0.000000

 -----------------------------------------------------------------
                    Cartesian Multipole Moments
 -----------------------------------------------------------------
    Charge (ESU x 10^10)
                -0.0000
    Dipole Moment (Debye)
         X      -0.0000      Y      -4.5901      Z       0.6435
       Tot       4.6350
    Quadrupole Moments (Debye-Ang)
        XX     -28.3771     XY      -0.0000     YY     -37.0905
        XZ       0.0000     YZ       2.0081     ZZ     -33.4509
    Octopole Moments (Debye-Ang^2)
       XXX       0.0000    XXY       0.8720    XYY      -0.0000
       YYY      -9.3239    XXZ       0.9507    XYZ       0.0000
       YYZ       4.1068    XZZ       0.0000    YZZ      -0.8435
       ZZZ      -4.0634
    Hexadecapole Moments (Debye-Ang^3)
      XXXX    -199.4477   XXXY      -0.0000   XXYY     -67.9462
      XYYY       0.0000   YYYY    -200.1254   XXXZ       0.0000
      XXYZ       0.2990   XYYZ      -0.0000   YYYZ      -0.7235
      XXZZ     -48.0666   XYZZ       0.0000   YYZZ     -44.1143
      XZZZ      -0.0000   YZZZ       1.5377   ZZZZ     -76.2409
 -----------------------------------------------------------------
Archival summary:
1\1\n1773\SP\HF\BasisUnspecified\1126\x_thofr\FriMay2417:41:212019FriMay2417:41:212019\0\\#,HF,BasisUnspecified,\\0,1\S\O,1,1.49461\C,1,1.79783,2,106.256\H,3,1.08291,1,106.779,2,67.8031,0\H,3,1.08467,1,110.214,2,-172.573,0\H,3,1.08472,1,108.095,2,-50.4228,0\C,1,1.79783,2,106.256,3,-100.829,0\H,7,1.08292,1,106.779,2,-67.8029,0\H,7,1.08467,1,110.214,2,172.573,0\H,7,1.08472,1,108.095,2,50.423,0\\HF=-551.642411\\@

 Total job time:  2095.83s(wall), 37209.31s(cpu) 
 Fri May 24 17:41:21 2019

        *************************************************************
        *                                                           *
        *  Thank you very much for using Q-Chem.  Have a nice day.  *
        *                                                           *
        *************************************************************


0 sent ACK to 0 
now end server 0 ... 
