mFile = /home/x_iubru/qchem_exe/bin/mpi/machines
Process 0 of 1 is on n1594 - thread support 0
initial socket setup ...start
initial socket setup ...done 
now start server 0 ... 
Q-Chem Developer Version!
                  Welcome to Q-Chem
     A Quantum Leap Into The Future Of Chemistry


 Q-Chem 5.1, Q-Chem, Inc., Pleasanton, CA (2018)

 Yihan Shao,  Zhengting Gan,  E. Epifanovsky,  A. T. B. Gilbert,  M. Wormit,  
 J. Kussmann,  A. W. Lange,  A. Behn,  Jia Deng,  Xintian Feng,  D. Ghosh,  
 M. Goldey,  P. R. Horn,  L. D. Jacobson,  I. Kaliman,  T. Kus,  A. Landau,  
 Jie Liu,  E. I. Proynov,  R. M. Richard,  R. P. Steele,  E. J. Sundstrom,  
 H. L. Woodcock III,  P. M. Zimmerman,  D. Zuev,  B. Albrecht,  E. Alguire,  
 S. A. Baeppler,  D. Barton,  Z. Benda,  Y. A. Bernard,  E. J. Berquist,  
 K. B. Bravaya,  H. Burton,  D. Casanova,  Chun-Min Chang,  Yunqing Chen,  
 A. Chien,  K. D. Closser,  M. P. Coons,  S. Coriani,  S. Dasgupta,  
 A. L. Dempwolff,  M. Diedenhofen,  Hainam Do,  R. G. Edgar,  Po-Tung Fang,  
 S. Faraji,  S. Fatehi,  Qingguo Feng,  K. D. Fenk,  J. Fosso-Tande,  
 Qinghui Ge,  A. Ghysels,  G. Gidofalvi,  J. Gomes,  J. Gonthier,  A. Gunina,  
 D. Hait,  M. W. D. Hanson-Heine,  P. H. P. Harbach,  A. W. Hauser,  
 J. E. Herr,  E. G. Hohenstein,  Z. C. Holden,  Kerwin Hui,  B. C. Huynh,  
 T.-C. Jagau,  Hyunjun Ji,  B. Kaduk,  K. Khistyaev,  Jaehoon Kim,  
 P. Klunzinger,  K. Koh,  D. Kosenkov,  L. Koulias,  T. Kowalczyk,  
 C. M. Krauter,  A. Kunitsa,  Ka Un Lao,  A. Laurent,  K. V. Lawler,  
 Joonho Lee,  D. Lefrancois,  S. Lehtola,  D. S. Levine,  Yi-Pei Li,  
 You-Sheng Lin,  Fenglai Liu,  E. Livshits,  A. Luenser,  P. Manohar,  
 E. Mansoor,  S. F. Manzer,  Shan-Ping Mao,  Yuezhi Mao,  N. Mardirossian,  
 A. V. Marenich,  T. Markovich,  L. A. Martinez-Martinez,  S. A. Maurer,  
 N. J. Mayhall,  S. C. McKenzie,  J.-M. Mewes,  A. F. Morrison,  
 J. W. Mullinax,  K. Nanda,  T. S. Nguyen-Beck,  R. Olivares-Amaya,  
 J. A. Parkhill,  T. M. Perrine,  F. Plasser,  P. Pokhilko,  S. Prager,  
 A. Prociuk,  E. Ramos,  D. R. Rehn,  F. Rob,  M. Schneider,  N. Sergueev,  
 S. M. Sharada,  S. Sharma,  D. W. Small,  T. Stauch,  T. Stein,  
 Yu-Chuan Su,  A. J. W. Thom,  A. Tkatchenko,  T. Tsuchimochi,  N. M. Tubman,  
 L. Vogt,  M. L. Vidal,  O. Vydrov,  M. A. Watson,  J. Wenzel,  
 M. de Wergifosse,  T. A. Wesolowski,  A. White,  J. Witte,  A. Yamada,  
 Jun Yang,  K. Yao,  S. Yeganeh,  S. R. Yost,  Zhi-Qiang You,  A. Zech,  
 Igor Ying Zhang,  Xing Zhang,  Yan Zhao,  Ying Zhu,  B. R. Brooks,  
 G. K. L. Chan,  C. J. Cramer,  M. S. Gordon,  W. J. Hehre,  A. Klamt,  
 M. W. Schmidt,  C. D. Sherrill,  D. G. Truhlar,  A. Aspuru-Guzik,  R. Baer,  
 A. T. Bell,  N. A. Besley,  Jeng-Da Chai,  A. E. DePrince, III,  
 R. A. DiStasio Jr.,  A. Dreuw,  B. D. Dunietz,  T. R. Furlani,  
 Chao-Ping Hsu,  Yousung Jung,  Jing Kong,  D. S. Lambrecht,  WanZhen Liang,  
 C. Ochsenfeld,  V. A. Rassolov,  L. V. Slipchenko,  J. E. Subotnik,  
 T. Van Voorhis,  J. M. Herbert,  A. I. Krylov,  P. M. W. Gill,  M. Head-Gordon

 Contributors to earlier versions of Q-Chem not listed above: 
 R. D. Adamson,  B. Austin,  J. Baker,  G. J. O. Beran,  K. Brandhorst,  
 S. T. Brown,  E. F. C. Byrd,  A. K. Chakraborty,  C.-L. Cheng,  
 Siu Hung Chien,  D. M. Chipman,  D. L. Crittenden,  H. Dachsel,  
 R. J. Doerksen,  A. D. Dutoi,  L. Fusti-Molnar,  W. A. Goddard III,  
 A. Golubeva-Zadorozhnaya,  S. R. Gwaltney,  G. Hawkins,  A. Heyden,  
 S. Hirata,  G. Kedziora,  F. J. Keil,  C. Kelley,  Jihan Kim,  R. A. King,  
 R. Z. Khaliullin,  P. P. Korambath,  W. Kurlancheek,  A. M. Lee,  M. S. Lee,  
 S. V. Levchenko,  Ching Yeh Lin,  D. Liotard,  R. C. Lochan,  I. Lotan,  
 P. E. Maslen,  N. Nair,  D. P. O'Neill,  D. Neuhauser,  E. Neuscamman,  
 C. M. Oana,  R. Olson,  B. Peters,  R. Peverati,  P. A. Pieniazek,  
 Y. M. Rhee,  J. Ritchie,  M. A. Rohrdanz,  E. Rosta,  N. J. Russ,  
 H. F. Schaefer III,  N. E. Schultz,  N. Shenvi,  A. C. Simmonett,  A. Sodt,  
 D. Stuck,  K. S. Thanthiriwatte,  V. Vanovschi,  Tao Wang,  A. Warshel,  
 C. F. Williams,  Q. Wu,  X. Xu,  W. Zhang

 Please cite Q-Chem as follows:
 Y. Shao et al., Mol. Phys. 113, 184-215 (2015)
 DOI: 10.1080/00268976.2014.952696

 Q-Chem 5.1.1 for Intel X86 EM64T Linux

 Parts of Q-Chem use Armadillo 8.300.2 (Tropical Shenanigans).
 http://arma.sourceforge.net/

 Q-Chem begins on Fri May 24 17:07:04 2019  

Host: n1594
0

     Scratch files written to /scratch/local/qchem382165//
 Parallel job on  1  processors
Input Ideriv = 2
Curr. Ideriv = -1
Max.  Ideriv = 2

Checking the input file for inconsistencies... 	...done.

--------------------------------------------------------------
User input:
--------------------------------------------------------------
$molecule
0 1
H       -0.000000    0.000000   -2.366583
C       -0.000000   -0.000000   -1.289235
N       -0.000000    1.184358   -0.683787
C       -0.000000    1.116511    0.644615
H       -0.000000    2.049521    1.183291
N        0.000000    0.000000    1.367578
C       -0.000000   -1.116511    0.644615
H       -0.000000   -2.049521    1.183291
N       -0.000000   -1.184358   -0.683787
$end

$rem
method				cvs-adc(2)-x
ee_singlets			10
basis				gen
purecart			1111
cc_symmetry			false
symmetry			false
threads				30
mem_total			90000
mem_static			2000
adc_davidson_maxsubspace	200
adc_davidson_maxiter		500
cc_rest_occ			6
$end

$basis
****
N     0 
aug-cc-pVTZ
****
C     0 
aug-cc-pVTZ
****
H     0 
cc-pVDZ
****
$end
--------------------------------------------------------------
 ----------------------------------------------------------------
             Standard Nuclear Orientation (Angstroms)
    I     Atom           X                Y                Z
 ----------------------------------------------------------------
    1      H       0.0000000000     0.0000000000     2.3665829286
    2      C       0.0000000000     0.0000000000     1.2892349286
    3      N      -1.1843580000     0.0000000000     0.6837869286
    4      C      -1.1165110000    -0.0000000000    -0.6446150714
    5      H      -2.0495210000    -0.0000000000    -1.1832910714
    6      N       0.0000000000    -0.0000000000    -1.3675780714
    7      C       1.1165110000    -0.0000000000    -0.6446150714
    8      H       2.0495210000    -0.0000000000    -1.1832910714
    9      N       1.1843580000     0.0000000000     0.6837869286
 ----------------------------------------------------------------
 Molecular Point Group                 C2v   NOp =  4
 Largest Abelian Subgroup              C2v   NOp =  4
 Nuclear Repulsion Energy =   212.7220957283 hartrees
 There are       21 alpha and       21 beta electrons
 Requested basis set is non-standard
 There are 93 shells and 291 basis functions

 Total QAlloc Memory Limit  90000 MB
 Mega-Array Size      1956 MB
 MEM_STATIC part      2000 MB

                       Distance Matrix (Angstroms)
             H (  1)   C (  2)   N (  3)   C (  4)   H (  5)   N (  6)
   C (  2)  1.077348
   N (  3)  2.057792  1.330140
   C (  4)  3.211528  2.233019  1.330133
   H (  5)  4.099042  3.211529  2.057787  1.077348
   N (  6)  3.734161  2.656813  2.368713  1.330140  2.057790
   C (  7)  3.211528  2.233019  2.656812  2.233022  3.211531  1.330140
   H (  8)  4.099042  3.211529  3.734160  3.211531  4.099042  2.057790
   N (  9)  2.057792  1.330140  2.368716  2.656812  3.734160  2.368713
             C (  7)   H (  8)
   H (  8)  1.077348
   N (  9)  1.330133  2.057787
 
 A cutoff of  1.0D-11 yielded   4371 shell pairs
 There are     42999 function pairs (     60576 Cartesian)
 
 -------------------------------------------------------
 OpenMP Integral Computing Module                       
 Release: version 1.0, May 2013, Q-Chem Inc. Pittsburgh 
 -------------------------------------------------------
 Integral Job Info:
 Integral job number is                      11
 Integral operator is                         1
 short-range coefficients                     0
 long-range coefficients              100000000
 Omega coefficients                           0
 if combine SR and LR in K                    0
 Integral screening is                        0
 Integral computing path is                   2
 max size of driver memory is            800000
 size of driver memory is                776718
 size of scratch memory is              6691272
 max col of scratch BK array              10000
 max len of scratch array in speh3          662
 max len of scratch index in speh4           32
 max int batch size is                      520
 min int batch size is                       52
 fixed nKL is                                52
 max L of basis functions is                  3
 order of int derivative is                   0
 number of shells is                         93
 number of basis is                         345
 number of cartesian basis is               345
 number of contracted shell pairs          4371
 number of primitive shell pairs          14826
 maxK2 (contraction) of shell pair           64
 max number of K2 of shell pair               1
 max number of CS2 of shell pair            453
 max number of PS2 of shell pair           1896
 mem total for path MDJ                  736752
 -------------------------------------------------------
 Smallest overlap matrix eigenvalue = 3.09E-05

 Scale SEOQF with 1.000000e-01/1.000000e-01/1.000000e-01

 Standard Electronic Orientation quadrupole field applied
 Nucleus-field energy     =    -0.0000000031 hartrees
 Guess MOs from core Hamiltonian diagonalization
 A restricted Hartree-Fock SCF calculation will be
 performed using Pulay DIIS extrapolation
 SCF converges when DIIS error is below 1.0E-08
 using 30 threads for integral computing
 -------------------------------------------------------
 OpenMP Integral computing Module                
 Release: version 2.0, May 2017, Q-Chem Inc. Pleasanton 
 -------------------------------------------------------
 ---------------------------------------
  Cycle       Energy         DIIS Error
 ---------------------------------------
    1    -230.5937018185      7.72E-02
    2    -204.2480481734      3.53E-02
    3    -260.1356564568      3.76E-02
    4    -275.4671327487      1.68E-02
    5    -277.7264035111      9.51E-03
    6    -278.5917772995      3.99E-03
    7    -278.7582999940      1.38E-03
    8    -278.7864668950      1.80E-04
    9    -278.7874194483      7.69E-05
   10    -278.7877106933      3.35E-05
   11    -278.7877685085      3.83E-06
   12    -278.7877691433      7.67E-07
   13    -278.7877691566      3.75E-07
   14    -278.7877691584      6.49E-08
   15    -278.7877691590      1.18E-08
   16    -278.7877691576      3.55E-09 Convergence criterion met
 ---------------------------------------
 SCF time:  CPU 845.71 s  wall 28.30 s
 SCF   energy in the final basis set = -278.78776916
 Total energy in the final basis set = -278.78776916
================================================================================
|                                                                              |
|                                 A D C  M A N                                 |
|                                                                              |
 ------------------------------------------------------------------------------ 
|                                                                              |
| Components:                                                                  |
|                                                                              |
| - libvmm - 1.3-trunk                                                         |
|   Authors:                                                                   |
|   Evgeny Epifanovsky, Ilya Kaliman                                           |
|                                                                              |
| - libtensor - 2.5-trunk                                                      |
|   Authors:                                                                   |
|   Evgeny Epifanovsky, Michael Wormit, Dmitry Zuev, Sam Manzer,               |
|   Ilya Kaliman                                                               |
|                                                                              |
| - libwfa - 1.1-beta                                                          |
|   Authors:                                                                   |
|   Felix Plasser, Stefanie Baeppler, Benjamin Thomitzni, Michael Wormit       |
|                                                                              |
| - libadc - 1.1-trunk                                                         |
|   Authors:                                                                   |
|   Michael Wormit, Adrian L. Dempwolff, Philipp H. P. Harbach,                |
|   Caroline Krauter, Dirk Rehn, Matthias Schneider, Jan Wenzel                |
|                                                                              |
| - adcman - 2.6-trunk                                                         |
|   Authors:                                                                   |
|   Michael Wormit, Adrian L. Dempwolff, Philipp H. P. Harbach,                |
|   Caroline Krauter, Daniel Lefrancois, Jan-Michael Mewes, Dirk Rehn,         |
|   Matthias Schneider, Jan Wenzel, Andreas Dreuw                              |
|                                                                              |
| Authors of earlier versions of ADCMAN:                                       |
| Andreas Dreuw, Jan Hendrik Starcke, Dirk Rehn, Michael Wormit                |
|                                                                              |
================================================================================

 

--------------------------------------------------------------------------------
                                   HF Summary                                   
--------------------------------------------------------------------------------
  Energy:                                                 -278.7877691576 a.u.
  Dip. moment [a.u.]:                  [   0.000000,    0.000000,    0.000017]
  Total dipole [Debye]:                                               0.000044
  <r^2> [a.u.]:                        [ 179.616481,   25.749423,  179.616033]
  Total <r^2> [a.u.]:                                               384.981937
--------------------------------------------------------------------------------

--------------------------------------------------------------------------------
                                 MP(2) Summary                                  
--------------------------------------------------------------------------------
  MP energy contribution:                                   -1.1491597724 a.u.
  Total energy:                                           -279.9369289300 a.u.
  Dip. moment [a.u.]:                  [   0.000000,    0.000000,    0.000011]
  Total dipole [Debye]:                                               0.000028
  <r^2> [a.u.]:                        [ 179.500670,   25.601870,  179.500229]
  Total <r^2> [a.u.]:                                               384.602768
--------------------------------------------------------------------------------
  Starting Davidson for singlet states of irrep A ... 
--------------------------------------------------------------------------------
   It NVec Conv  Avg. Norm  Max. Norm  Conv. states           Remark
--------------------------------------------------------------------------------
        10    0  3.491e-01  1.154e+00 11.0817 n n n n n n n n Guess.
    1   20    0  1.979e-01  7.360e-01 10.6272 n n n n n n n n 
    2   30    0  6.678e-02  2.396e-01 10.5378 n n n n n n n n 
    3   40    0  2.559e-02  9.890e-02 10.5257 n n n n n n n n 
    4   50    0  2.095e-02  8.533e-02 10.5219 n n n n n n n n 
    5   60    0  1.246e-02  4.652e-02 10.5203 n n n n n n n n 
    6   70    0  7.544e-03  3.285e-02 10.5199 n n n n n n n n 
    7   80    0  5.185e-03  3.298e-02 10.5198 n n n n n n n n 
    8   90    0  4.273e-03  3.609e-02 10.5197 n n n n n n n n 
    9  100    0  5.289e-03  4.829e-02 10.5197 n n n n n n n n 
   10  110    0  5.569e-03  5.183e-02 10.5197 n n n n n n n n 
   11  120    0  1.233e-02  1.223e-01 10.5197 n n n n n n n n 
   12  130    0  7.643e-03  7.564e-02 10.5197 n n n n n n n n 
   13  140    0  6.573e-03  6.519e-02 10.5197 n n n n n n n n 
   14  150    0  5.643e-03  5.598e-02 10.5197 n n n n n n n n 
   15  160    0  5.405e-03  5.366e-02 10.5197 n n n n n n n n 
   16  170    0  6.381e-03  6.356e-02 10.5197 n n n n n n n n 
   17  180    0  5.544e-03  5.527e-02 10.5197 n n n n n n n n 
   18  190    0  3.751e-03  3.735e-02 10.5197 n n n n n n n n 
   19  200    0  2.570e-03  2.552e-02 10.5197 n n n n n n n n 
   20   20    0  1.514e-03  1.505e-02 10.5197 n n n n n n n n Subspace collapsed.
   21   30    3  1.350e-03  1.342e-02 10.5197 y n y n n y n n 
   22   40    4  1.180e-03  1.174e-02 10.5197 y y y n n y n n 
   23   50    4  1.193e-03  1.189e-02 10.5197 y y y n n y n n 
   24   60    4  8.988e-04  8.959e-03 10.5197 y y y n n y n n 
   25   70    6  7.569e-04  7.547e-03 10.5197 y y y y y y n n 
   26   80    6  7.017e-04  6.999e-03 10.5197 y y y y y y n n 
   27   90    6  6.953e-04  6.939e-03 10.5197 y y y y y y n n 
   28  100    6  5.082e-04  5.071e-03 10.5197 y y y y y y n n 
   29  110    6  4.061e-04  4.053e-03 10.5197 y y y y y y n n 
   30  120    6  3.546e-04  3.542e-03 10.5197 y y y y y y n n 
   31  130    6  2.961e-04  2.957e-03 10.5197 y y y y y y n n 
   32  140    6  2.404e-04  2.399e-03 10.5197 y y y y y y n n 
   33  150    6  2.146e-04  2.142e-03 10.5197 y y y y y y n n 
   34  160    6  1.706e-04  1.703e-03 10.5197 y y y y y y n n 
   35  170    6  1.110e-04  1.107e-03 10.5197 y y y y y y n n 
   36  180    6  8.180e-05  8.161e-04 10.5197 y y y y y y n n 
   37  190    6  6.814e-05  6.804e-04 10.5197 y y y y y y n n 
   38  200    6  5.031e-05  5.026e-04 10.5197 y y y y y y n n 
   39   20    6  2.960e-05  2.956e-04 10.5197 y y y y y y n n Subspace collapsed.
   40   30    6  2.354e-05  2.352e-04 10.5197 y y y y y y n n 
   41   32    6  2.354e-05  2.352e-04 10.5197 y y y y y y n n 
   42   34    6  2.354e-05  2.352e-04 10.5197 y y y y y y n n 
   43   36    6  2.354e-05  2.352e-04 10.5197 y y y y y y n n 
   44   43    7  1.604e-05  1.603e-04 10.5197 y y y y y y y n 
   45   50    7  1.357e-05  1.356e-04 10.5197 y y y y y y y n 
   46   52    7  1.357e-05  1.356e-04 10.5197 y y y y y y y n 
   47   54    7  1.357e-05  1.356e-04 10.5197 y y y y y y y n 
   48   60    7  9.456e-06  9.444e-05 10.5197 y y y y y y y n 
   49   66    7  6.723e-06  6.712e-05 10.5197 y y y y y y y n 
   50   72    7  5.367e-06  5.358e-05 10.5197 y y y y y y y n 
   51   78    8  4.599e-06  4.592e-05 10.5197 y y y y y y y n 
   52   83    8  3.982e-06  3.976e-05 10.5197 y y y y y y y n 
   53   88    8  3.708e-06  3.705e-05 10.5197 y y y y y y y n 
   54   92    9  2.828e-06  2.826e-05 10.5197 y y y y y y y y 
   55   96    9  1.931e-06  1.930e-05 10.5197 y y y y y y y y 
   56  100    9  1.561e-06  1.560e-05 10.5197 y y y y y y y y 
   57  104    9  1.198e-06  1.197e-05 10.5197 y y y y y y y y 
   58  108    9  1.125e-06  1.125e-05 10.5197 y y y y y y y y 
   59  112    9  7.583e-07  7.576e-06 10.5197 y y y y y y y y 
   60  116    9  5.919e-07  5.912e-06 10.5197 y y y y y y y y 
   61  120    9  5.348e-07  5.344e-06 10.5197 y y y y y y y y 
   62  124    9  4.715e-07  4.710e-06 10.5197 y y y y y y y y 
   63  128    9  5.667e-07  5.665e-06 10.5197 y y y y y y y y 
   64  132    9  5.464e-07  5.463e-06 10.5197 y y y y y y y y 
   65  136    9  4.343e-07  4.342e-06 10.5197 y y y y y y y y 
   66  140    9  3.017e-07  3.016e-06 10.5197 y y y y y y y y 
   67  144    9  2.110e-07  2.109e-06 10.5197 y y y y y y y y 
   68  148    9  1.643e-07  1.642e-06 10.5197 y y y y y y y y 
   69  152    9  1.483e-07  1.483e-06 10.5197 y y y y y y y y 
   70  156    9  1.594e-07  1.594e-06 10.5197 y y y y y y y y 
   71  160    9  1.455e-07  1.455e-06 10.5197 y y y y y y y y 
   72  164    9  1.372e-07  1.372e-06 10.5197 y y y y y y y y 
   73  168    9  1.095e-07  1.095e-06 10.5197 y y y y y y y y 
   74  172   10  7.074e-08  7.074e-07 10.5197 y y y y y y y y Converged.
--------------------------------------------------------------------------------
  Davidson Summary: 
 ------------------------------------------------------------
  State  0: excitation energy =  10.5197 a.u.   (converged)
  State  1: excitation energy =  10.5197 a.u.   (converged)
  State  2: excitation energy =  10.5200 a.u.   (converged)
  State  3: excitation energy =  10.5688 a.u.   (converged)
  State  4: excitation energy =  10.5688 a.u.   (converged)
  State  5: excitation energy =  10.5689 a.u.   (converged)
  State  6: excitation energy =  10.6611 a.u.   (converged)
  State  7: excitation energy =  10.6612 a.u.   (converged)
  State  8: excitation energy =  10.6612 a.u.   (converged)
  State  9: excitation energy =  10.6883 a.u.   (converged)
 ------------------------------------------------------------


--------------------------------------------------------------------------------
                             Excited State Summary
--------------------------------------------------------------------------------
--------------------------------------------------------------------------------

  Excited state 1 (singlet, A)                                     [converged]
  ----------------------------------------------------------------------------
  Term symbol:  2 (1) A                                     R^2 =  2.71420e-11

  Total energy:                                           -269.4172188358 a.u.
  Excitation energy:                                             286.255870 eV

  Osc. strength:                                                      0.000000
  Trans. dip. moment [a.u.]:           [  -0.000000,    0.000190,   -0.000000]
  <i|r^2|0> [a.u.]:                    [  -0.000000,    0.000000,    0.000000]


  V1^2 = 0.7825, V2^2 = 0.2175

  Important amplitudes:
     core i     occ j       vir a       vir b          v   
    --------------------------------------------------------
     6 (A) A               26 (A) A                 -0.3506
     4 (A) A               26 (A) A                 -0.2805
    --------------------------------------------------------
  ----------------------------------------------------------------------------


  Excited state 2 (singlet, A)                                     [converged]
  ----------------------------------------------------------------------------
  Term symbol:  3 (1) A                                     R^2 =  2.77448e-11

  Total energy:                                           -269.4172182738 a.u.
  Excitation energy:                                             286.255885 eV

  Osc. strength:                                                      0.000000
  Trans. dip. moment [a.u.]:           [   0.000000,    0.000000,   -0.000000]
  <i|r^2|0> [a.u.]:                    [  -0.000000,   -0.000000,   -0.000000]


  V1^2 = 0.7825, V2^2 = 0.2175

  Important amplitudes:
     core i     occ j       vir a       vir b          v   
    --------------------------------------------------------
     6 (A) A               27 (A) A                 -0.3810
     5 (A) A               26 (A) A                  0.2590
    --------------------------------------------------------
  ----------------------------------------------------------------------------


  Excited state 3 (singlet, A)                                     [converged]
  ----------------------------------------------------------------------------
  Term symbol:  4 (1) A                                     R^2 =  2.74838e-11

  Total energy:                                           -269.4169062329 a.u.
  Excitation energy:                                             286.264376 eV

  Osc. strength:                                                      0.158634
  Trans. dip. moment [a.u.]:           [   0.000000,    0.150396,   -0.000000]
  <i|r^2|0> [a.u.]:                    [   0.000000,    0.000000,   -0.000000]


  V1^2 = 0.7822, V2^2 = 0.2178

  Important amplitudes:
     core i     occ j       vir a       vir b          v   
    --------------------------------------------------------
     5 (A) A               27 (A) A                 -0.3668
     4 (A) A               26 (A) A                 -0.3655
    --------------------------------------------------------
  ----------------------------------------------------------------------------


  Excited state 4 (singlet, A)                                     [converged]
  ----------------------------------------------------------------------------
  Term symbol:  5 (1) A                                     R^2 =  2.66833e-11

  Total energy:                                           -269.3681119226 a.u.
  Excitation energy:                                             287.592137 eV

  Osc. strength:                                                      0.000000
  Trans. dip. moment [a.u.]:           [  -0.000000,   -0.000002,   -0.000000]
  <i|r^2|0> [a.u.]:                    [  -0.000000,    0.000000,    0.000000]


  V1^2 = 0.7063, V2^2 = 0.2937

  Important amplitudes:
     core i     occ j       vir a       vir b          v   
    --------------------------------------------------------
     6 (A) A               26 (A) A                  0.3897
     5 (A) A               27 (A) A                  0.2651
    --------------------------------------------------------
  ----------------------------------------------------------------------------


  Excited state 5 (singlet, A)                                     [converged]
  ----------------------------------------------------------------------------
  Term symbol:  6 (1) A                                     R^2 =  2.64458e-11

  Total energy:                                           -269.3681103433 a.u.
  Excitation energy:                                             287.592180 eV

  Osc. strength:                                                      0.000000
  Trans. dip. moment [a.u.]:           [   0.000000,   -0.000000,    0.000000]
  <i|r^2|0> [a.u.]:                    [   0.000000,    0.000000,    0.000000]


  V1^2 = 0.7063, V2^2 = 0.2937

  Important amplitudes:
     core i     occ j       vir a       vir b          v   
    --------------------------------------------------------
     6 (A) A               27 (A) A                 -0.3591
     5 (A) A               26 (A) A                 -0.2772
    --------------------------------------------------------
  ----------------------------------------------------------------------------


  Excited state 6 (singlet, A)                                     [converged]
  ----------------------------------------------------------------------------
  Term symbol:  7 (1) A                                     R^2 =  2.65286e-11

  Total energy:                                           -269.3680752123 a.u.
  Excitation energy:                                             287.593136 eV

  Osc. strength:                                                      0.000000
  Trans. dip. moment [a.u.]:           [  -0.000000,    0.000000,    0.000000]
  <i|r^2|0> [a.u.]:                    [   0.000000,   -0.000000,   -0.000000]


  V1^2 = 0.7063, V2^2 = 0.2937

  Important amplitudes:
     core i     occ j       vir a       vir b          v   
    --------------------------------------------------------
     4 (A) A               27 (A) A                 -0.3833
     5 (A) A               26 (A) A                  0.3660
    --------------------------------------------------------
  ----------------------------------------------------------------------------


  Excited state 7 (singlet, A)                                     [converged]
  ----------------------------------------------------------------------------
  Term symbol:  8 (1) A                                     R^2 =  2.02543e-10

  Total energy:                                           -269.2757790293 a.u.
  Excitation energy:                                             290.104643 eV

  Osc. strength:                                                      0.009090
  Trans. dip. moment [a.u.]:           [   0.035761,   -0.000000,   -0.000000]
  <i|r^2|0> [a.u.]:                    [  -0.000001,   -0.000000,    0.000001]


  V1^2 = 0.7448, V2^2 = 0.2552

  Important amplitudes:
     core i     occ j       vir a       vir b          v   
    --------------------------------------------------------
     5 (A) A               24 (A) A                  0.4963
     6 (A) A               23 (A) A                 -0.1887
    --------------------------------------------------------
  ----------------------------------------------------------------------------


  Excited state 8 (singlet, A)                                     [converged]
  ----------------------------------------------------------------------------
  Term symbol:  9 (1) A                                     R^2 =  3.19284e-09

  Total energy:                                           -269.2757784665 a.u.
  Excitation energy:                                             290.104658 eV

  Osc. strength:                                                      0.009088
  Trans. dip. moment [a.u.]:           [  -0.000000,    0.000000,   -0.035759]
  <i|r^2|0> [a.u.]:                    [  -0.087057,   -0.000091,    0.084023]


  V1^2 = 0.7448, V2^2 = 0.2552

  Important amplitudes:
     core i     occ j       vir a       vir b          v   
    --------------------------------------------------------
     4 (A) A               24 (A) A                 -0.4951
     6 (A) A               22 (A) A                  0.1738
    --------------------------------------------------------
  ----------------------------------------------------------------------------


  Excited state 9 (singlet, A)                                     [converged]
  ----------------------------------------------------------------------------
  Term symbol:  10 (1) A                                    R^2 =  1.15494e-09

  Total energy:                                           -269.2757433002 a.u.
  Excitation energy:                                             290.105615 eV

  Osc. strength:                                                      0.000001
  Trans. dip. moment [a.u.]:           [  -0.000000,    0.000000,    0.000408]
  <i|r^2|0> [a.u.]:                    [  -0.131941,   -0.007992,   -0.133893]


  V1^2 = 0.7446, V2^2 = 0.2554

  Important amplitudes:
     core i     occ j       vir a       vir b          v   
    --------------------------------------------------------
     6 (A) A               24 (A) A                  0.4957
     4 (A) A               22 (A) A                 -0.1821
    --------------------------------------------------------
  ----------------------------------------------------------------------------


  Excited state 10 (singlet, A)                                     [converged]
  ----------------------------------------------------------------------------
  Term symbol:  11 (1) A                                    R^2 =  7.07363e-07

  Total energy:                                           -269.2486698549 a.u.
  Excitation energy:                                             290.842321 eV

  Osc. strength:                                                      0.006084
  Trans. dip. moment [a.u.]:           [  -0.029221,   -0.000000,   -0.000000]
  <i|r^2|0> [a.u.]:                    [  -0.000001,   -0.000000,    0.000000]


  V1^2 = 0.7357, V2^2 = 0.2643

  Important amplitudes:
     core i     occ j       vir a       vir b          v   
    --------------------------------------------------------
     5 (A) A               30 (A) A                 -0.3165
     6 (A) A               23 (A) A                  0.2862
    --------------------------------------------------------
  ----------------------------------------------------------------------------


--------------------------------------------------------------------------------
  Time of ADC calculation:  CPU 203895.51 s  wall 67329.95 s
================================================================================
 
 --------------------------------------------------------------
             Orbital Energies (a.u.) and Symmetries
 --------------------------------------------------------------
 
 Alpha MOs, Restricted
 -- Occupied --                  
-15.588 -15.588 -15.587 -11.341 -11.341 -11.341  -1.369  -1.220
  1 A1    1 B1    2 A1    3 A1    2 B1    4 A1    5 A1    3 B1                 
 -1.220  -0.936  -0.936  -0.767  -0.750  -0.618  -0.618  -0.616
  6 A1    7 A1    4 B1    8 A1    5 B1    9 A1    6 B1    1 B2                 
 -0.578  -0.442  -0.442  -0.442  -0.442
 10 A1    1 A2    2 B2   11 A1    7 B1                                         
 -- Virtual --                   
  0.054   0.054   0.059   0.064   0.076   0.076   0.088   0.088
 12 A1    8 B1   13 A1    3 B2    4 B2    2 A2   14 A1    9 B1                 
  0.099   0.109   0.120   0.120   0.167   0.176   0.176   0.185
 15 A1   10 B1    5 B2    3 A2   16 A1   17 A1   11 B1    6 B2                 
  0.185   0.203   0.203   0.212   0.234   0.234   0.243   0.263
  4 A2   18 A1   12 B1    7 B2   13 B1   19 A1   20 A1   14 B1                 
  0.281   0.281   0.291   0.300   0.321   0.321   0.331   0.374
 21 A1   15 B1   22 A1    8 B2   23 A1   16 B1    9 B2    5 A2                 
  0.383   0.383   0.384   0.384   0.432   0.432   0.446   0.474
 17 B1   24 A1   10 B2    6 A2   25 A1   18 B1   26 A1   11 B2                 
  0.474   0.483   0.500   0.500   0.528   0.537   0.562   0.562
  7 A2   19 B1   27 A1   20 B1   28 A1   12 B2   21 B1   29 A1                 
  0.589   0.589   0.593   0.593   0.604   0.607   0.607   0.611
 13 B2    8 A2   30 A1   22 B1   31 A1   23 B1   32 A1   14 B2                 
  0.629   0.644   0.667   0.667   0.684   0.684   0.711   0.745
 24 B1   33 A1   34 A1   25 B1   15 B2    9 A2   35 A1   10 A2                 
  0.746   0.763   0.763   0.811   0.829   0.829   0.829   0.876
 26 B1   36 A1   27 B1   37 A1   16 B2   38 A1   28 B1   11 A2                 
  0.876   0.887   0.920   0.935   0.935   0.990   1.014   1.014
 17 B2   39 A1   29 B1   40 A1   30 B1   41 A1   31 B1   42 A1                 
  1.025   1.025   1.056   1.056   1.061   1.061   1.126   1.146
 18 B2   12 A2   19 B2   13 A2   43 A1   32 B1   33 B1   20 B2                 
  1.153   1.153   1.172   1.232   1.232   1.246   1.275   1.313
 44 A1   34 B1   45 A1   14 A2   21 B2   46 A1   22 B2   47 A1                 
  1.327   1.327   1.331   1.331   1.334   1.341   1.364   1.364
 35 B1   48 A1   23 B2   15 A2   16 A2   36 B1   49 A1   37 B1                 
  1.410   1.410   1.475   1.507   1.507   1.515   1.521   1.521
 38 B1   50 A1   51 A1   24 B2   17 A2   18 A2   39 B1   52 A1                 
  1.529   1.615   1.683   1.683   1.689   1.689   1.706   1.723
 25 B2   40 B1   26 B2   19 A2   53 A1   41 B1   27 B2   54 A1                 
  1.723   1.821   1.821   1.873   1.952   1.952   1.988   1.988
 42 B1   43 B1   55 A1   56 A1   20 A2   28 B2   57 A1   44 B1                 
  1.990   1.991   2.033   2.057   2.057   2.065   2.070   2.070
 29 B2   21 A2   45 B1   58 A1   46 B1   59 A1   30 B2   22 A2                 
  2.140   2.140   2.248   2.248   2.250   2.329   2.329   2.333
 47 B1   60 A1   31 B2   23 A2   61 A1   24 A2   32 B2   62 A1                 
  2.333   2.357   2.399   2.399   2.400   2.400   2.416   2.429
 48 B1   49 B1   33 B2   25 A2   63 A1   50 B1   34 B2   64 A1                 
  2.429   2.514   2.611   2.629   2.629   2.649   2.684   2.684
 51 B1   52 B1   65 A1   35 B2   26 A2   27 A2   66 A1   53 B1                 
  2.691   2.726   2.806   2.977   2.977   2.988   3.030   3.061
 36 B2   54 B1   67 A1   55 B1   68 A1   37 B2   69 A1   38 B2                 
  3.061   3.101   3.101   3.213   3.213   3.233   3.280   3.280
 28 A2   56 B1   70 A1   71 A1   57 B1   58 B1   59 B1   72 A1                 
  3.294   3.434   3.434   3.466   3.467   3.485   3.528   3.528
 73 A1   60 B1   74 A1   61 B1   75 A1   39 B2   62 B1   76 A1                 
  3.552   3.552   3.624   3.624   3.644   3.647   3.669   3.669
 40 B2   29 A2   41 B2   30 A2   31 A2   42 B2   43 B2   32 A2                 
  3.784   3.784   3.796   3.812   3.845   3.845   3.855   3.855
 77 A1   63 B1   78 A1   44 B2   45 B2   33 A2   79 A1   64 B1                 
  3.897   3.952   3.991   4.018   4.018   4.186   4.186   4.223
 65 B1   34 A2   80 A1   81 A1   66 B1   67 B1   82 A1   68 B1                 
  4.243   4.243   4.271   4.319   4.361   4.403   4.403   4.422
 46 B2   35 A2   83 A1   69 B1   84 A1   70 B1   85 A1   71 B1                 
  4.422   4.443   4.443   4.444   4.918   4.918   4.961   5.044
 86 A1   47 B2   36 A2   48 B2   87 A1   72 B1   88 A1   89 A1                 
  5.044   5.151   5.151   5.224   5.261   5.261   5.346   5.396
 73 B1   90 A1   74 B1   49 B2   50 B2   37 A2   75 B1   91 A1                 
  5.445   5.445   5.451   5.451   5.567   5.567   5.638   5.638
 92 A1   76 B1   51 B2   38 A2   93 A1   77 B1   52 B2   39 A2                 
  5.656   5.656   5.729   5.823   5.823   5.834   5.855   5.983
 40 A2   53 B2   54 B2   41 A2   55 B2   42 A2   94 A1   56 B2                 
  6.058   6.095   6.095   6.122   6.197   6.197   6.239   6.389
 43 A2   95 A1   78 B1   96 A1   79 B1   97 A1   80 B1   98 A1                 
  6.389   6.405   6.405   6.527   6.854   6.854   6.871   7.327
 81 B1   99 A1   82 B1  100 A1   83 B1  101 A1   84 B1   85 B1                 
 14.901  14.931  14.931  15.976  15.976  16.490
102 A1  103 A1   86 B1  104 A1   87 B1  105 A1                                 
 
 Beta MOs, Restricted
 -- Occupied --                  
-15.588 -15.588 -15.587 -11.341 -11.341 -11.341  -1.369  -1.220
  1 A1    1 B1    2 A1    3 A1    2 B1    4 A1    5 A1    3 B1                 
 -1.220  -0.936  -0.936  -0.767  -0.750  -0.618  -0.618  -0.616
  6 A1    7 A1    4 B1    8 A1    5 B1    9 A1    6 B1    1 B2                 
 -0.578  -0.442  -0.442  -0.442  -0.442
 10 A1    1 A2    2 B2   11 A1    7 B1                                         
 -- Virtual --                   
  0.054   0.054   0.059   0.064   0.076   0.076   0.088   0.088
 12 A1    8 B1   13 A1    3 B2    4 B2    2 A2   14 A1    9 B1                 
  0.099   0.109   0.120   0.120   0.167   0.176   0.176   0.185
 15 A1   10 B1    5 B2    3 A2   16 A1   17 A1   11 B1    6 B2                 
  0.185   0.203   0.203   0.212   0.234   0.234   0.243   0.263
  4 A2   18 A1   12 B1    7 B2   13 B1   19 A1   20 A1   14 B1                 
  0.281   0.281   0.291   0.300   0.321   0.321   0.331   0.374
 21 A1   15 B1   22 A1    8 B2   23 A1   16 B1    9 B2    5 A2                 
  0.383   0.383   0.384   0.384   0.432   0.432   0.446   0.474
 17 B1   24 A1   10 B2    6 A2   25 A1   18 B1   26 A1   11 B2                 
  0.474   0.483   0.500   0.500   0.528   0.537   0.562   0.562
  7 A2   19 B1   27 A1   20 B1   28 A1   12 B2   21 B1   29 A1                 
  0.589   0.589   0.593   0.593   0.604   0.607   0.607   0.611
 13 B2    8 A2   30 A1   22 B1   31 A1   23 B1   32 A1   14 B2                 
  0.629   0.644   0.667   0.667   0.684   0.684   0.711   0.745
 24 B1   33 A1   34 A1   25 B1   15 B2    9 A2   35 A1   10 A2                 
  0.746   0.763   0.763   0.811   0.829   0.829   0.829   0.876
 26 B1   36 A1   27 B1   37 A1   16 B2   38 A1   28 B1   11 A2                 
  0.876   0.887   0.920   0.935   0.935   0.990   1.014   1.014
 17 B2   39 A1   29 B1   40 A1   30 B1   41 A1   31 B1   42 A1                 
  1.025   1.025   1.056   1.056   1.061   1.061   1.126   1.146
 18 B2   12 A2   19 B2   13 A2   43 A1   32 B1   33 B1   20 B2                 
  1.153   1.153   1.172   1.232   1.232   1.246   1.275   1.313
 44 A1   34 B1   45 A1   14 A2   21 B2   46 A1   22 B2   47 A1                 
  1.327   1.327   1.331   1.331   1.334   1.341   1.364   1.364
 35 B1   48 A1   23 B2   15 A2   16 A2   36 B1   49 A1   37 B1                 
  1.410   1.410   1.475   1.507   1.507   1.515   1.521   1.521
 38 B1   50 A1   51 A1   24 B2   17 A2   18 A2   39 B1   52 A1                 
  1.529   1.615   1.683   1.683   1.689   1.689   1.706   1.723
 25 B2   40 B1   26 B2   19 A2   53 A1   41 B1   27 B2   54 A1                 
  1.723   1.821   1.821   1.873   1.952   1.952   1.988   1.988
 42 B1   43 B1   55 A1   56 A1   20 A2   28 B2   57 A1   44 B1                 
  1.990   1.991   2.033   2.057   2.057   2.065   2.070   2.070
 29 B2   21 A2   45 B1   58 A1   46 B1   59 A1   30 B2   22 A2                 
  2.140   2.140   2.248   2.248   2.250   2.329   2.329   2.333
 47 B1   60 A1   31 B2   23 A2   61 A1   24 A2   32 B2   62 A1                 
  2.333   2.357   2.399   2.399   2.400   2.400   2.416   2.429
 48 B1   49 B1   33 B2   25 A2   63 A1   50 B1   34 B2   64 A1                 
  2.429   2.514   2.611   2.629   2.629   2.649   2.684   2.684
 51 B1   52 B1   65 A1   35 B2   26 A2   27 A2   66 A1   53 B1                 
  2.691   2.726   2.806   2.977   2.977   2.988   3.030   3.061
 36 B2   54 B1   67 A1   55 B1   68 A1   37 B2   69 A1   38 B2                 
  3.061   3.101   3.101   3.213   3.213   3.233   3.280   3.280
 28 A2   56 B1   70 A1   71 A1   57 B1   58 B1   59 B1   72 A1                 
  3.294   3.434   3.434   3.466   3.467   3.485   3.528   3.528
 73 A1   60 B1   74 A1   61 B1   75 A1   39 B2   62 B1   76 A1                 
  3.552   3.552   3.624   3.624   3.644   3.647   3.669   3.669
 40 B2   29 A2   41 B2   30 A2   31 A2   42 B2   43 B2   32 A2                 
  3.784   3.784   3.796   3.812   3.845   3.845   3.855   3.855
 77 A1   63 B1   78 A1   44 B2   45 B2   33 A2   79 A1   64 B1                 
  3.897   3.952   3.991   4.018   4.018   4.186   4.186   4.223
 65 B1   34 A2   80 A1   81 A1   66 B1   67 B1   82 A1   68 B1                 
  4.243   4.243   4.271   4.319   4.361   4.403   4.403   4.422
 46 B2   35 A2   83 A1   69 B1   84 A1   70 B1   85 A1   71 B1                 
  4.422   4.443   4.443   4.444   4.918   4.918   4.961   5.044
 86 A1   47 B2   36 A2   48 B2   87 A1   72 B1   88 A1   89 A1                 
  5.044   5.151   5.151   5.224   5.261   5.261   5.346   5.396
 73 B1   90 A1   74 B1   49 B2   50 B2   37 A2   75 B1   91 A1                 
  5.445   5.445   5.451   5.451   5.567   5.567   5.638   5.638
 92 A1   76 B1   51 B2   38 A2   93 A1   77 B1   52 B2   39 A2                 
  5.656   5.656   5.729   5.823   5.823   5.834   5.855   5.983
 40 A2   53 B2   54 B2   41 A2   55 B2   42 A2   94 A1   56 B2                 
  6.058   6.095   6.095   6.122   6.197   6.197   6.239   6.389
 43 A2   95 A1   78 B1   96 A1   79 B1   97 A1   80 B1   98 A1                 
  6.389   6.405   6.405   6.527   6.854   6.854   6.871   7.327
 81 B1   99 A1   82 B1  100 A1   83 B1  101 A1   84 B1   85 B1                 
 14.901  14.931  14.931  15.976  15.976  16.490
102 A1  103 A1   86 B1  104 A1   87 B1  105 A1                                 
 --------------------------------------------------------------
 
          Ground-State Mulliken Net Atomic Charges

     Atom                 Charge (a.u.)
  ----------------------------------------
      1 H                     0.093848
      2 C                     0.179009
      3 N                    -0.272851
      4 C                     0.179004
      5 H                     0.093849
      6 N                    -0.272860
      7 C                     0.179004
      8 H                     0.093849
      9 N                    -0.272851
  ----------------------------------------
  Sum of atomic charges =     0.000000

 -----------------------------------------------------------------
                    Cartesian Multipole Moments
 -----------------------------------------------------------------
    Charge (ESU x 10^10)
                 0.0000
    Dipole Moment (Debye)
         X       0.0000      Y       0.0000      Z       0.0000
       Tot       0.0000
    Quadrupole Moments (Debye-Ang)
        XX     -35.0617     XY       0.0000     YY     -34.6339
        XZ      -0.0000     YZ      -0.0000     ZZ     -35.0617
    Octopole Moments (Debye-Ang^2)
       XXX       0.0000    XXY      -0.0000    XYY      -0.0000
       YYY       0.0000    XXZ     -17.8021    XYZ       0.0000
       YYZ       0.0000    XZZ       0.0000    YZZ       0.0000
       ZZZ      17.8023
    Hexadecapole Moments (Debye-Ang^3)
      XXXX    -238.9959   XXXY       0.0000   XXYY     -47.7138
      XYYY       0.0000   YYYY     -35.2167   XXXZ       0.0000
      XXYZ      -0.0000   XYYZ      -0.0000   YYYZ      -0.0000
      XXZZ     -79.6652   XYZZ       0.0000   YYZZ     -47.7138
      XZZZ      -0.0000   YZZZ      -0.0000   ZZZZ    -238.9952
 -----------------------------------------------------------------
Archival summary:
1\1\n1594\SP\HF\BasisUnspecified\333\x_thofr\SatMay2511:50:352019SatMay2511:50:352019\0\\#,HF,BasisUnspecified,\\0,1\N\C,1,1.33013\H,2,1.07735,1,117.076\C,1,1.33014,2,114.152,3,-180,0\H,4,1.07735,1,117.076,2,-180,0\N,4,1.33014,1,125.847,2,-0,0\C,6,1.33013,4,114.152,1,-0,0\H,7,1.07735,6,117.076,4,180,0\N,7,1.33014,6,125.848,4,0,0\\HF=-278.787769\\@

 Total job time:  67411.58s(wall), 204814.67s(cpu) 
 Sat May 25 11:50:35 2019

        *************************************************************
        *                                                           *
        *  Thank you very much for using Q-Chem.  Have a nice day.  *
        *                                                           *
        *************************************************************


0 sent ACK to 0 
now end server 0 ... 
