mFile = /home/x_iubru/qchem_exe/bin/mpi/machines
Process 0 of 1 is on n1056 - thread support 0
initial socket setup ...start
initial socket setup ...done 
now start server 0 ... 
Q-Chem Developer Version!
                  Welcome to Q-Chem
     A Quantum Leap Into The Future Of Chemistry


 Q-Chem 5.1, Q-Chem, Inc., Pleasanton, CA (2018)

 Yihan Shao,  Zhengting Gan,  E. Epifanovsky,  A. T. B. Gilbert,  M. Wormit,  
 J. Kussmann,  A. W. Lange,  A. Behn,  Jia Deng,  Xintian Feng,  D. Ghosh,  
 M. Goldey,  P. R. Horn,  L. D. Jacobson,  I. Kaliman,  T. Kus,  A. Landau,  
 Jie Liu,  E. I. Proynov,  R. M. Richard,  R. P. Steele,  E. J. Sundstrom,  
 H. L. Woodcock III,  P. M. Zimmerman,  D. Zuev,  B. Albrecht,  E. Alguire,  
 S. A. Baeppler,  D. Barton,  Z. Benda,  Y. A. Bernard,  E. J. Berquist,  
 K. B. Bravaya,  H. Burton,  D. Casanova,  Chun-Min Chang,  Yunqing Chen,  
 A. Chien,  K. D. Closser,  M. P. Coons,  S. Coriani,  S. Dasgupta,  
 A. L. Dempwolff,  M. Diedenhofen,  Hainam Do,  R. G. Edgar,  Po-Tung Fang,  
 S. Faraji,  S. Fatehi,  Qingguo Feng,  K. D. Fenk,  J. Fosso-Tande,  
 Qinghui Ge,  A. Ghysels,  G. Gidofalvi,  J. Gomes,  J. Gonthier,  A. Gunina,  
 D. Hait,  M. W. D. Hanson-Heine,  P. H. P. Harbach,  A. W. Hauser,  
 J. E. Herr,  E. G. Hohenstein,  Z. C. Holden,  Kerwin Hui,  B. C. Huynh,  
 T.-C. Jagau,  Hyunjun Ji,  B. Kaduk,  K. Khistyaev,  Jaehoon Kim,  
 P. Klunzinger,  K. Koh,  D. Kosenkov,  L. Koulias,  T. Kowalczyk,  
 C. M. Krauter,  A. Kunitsa,  Ka Un Lao,  A. Laurent,  K. V. Lawler,  
 Joonho Lee,  D. Lefrancois,  S. Lehtola,  D. S. Levine,  Yi-Pei Li,  
 You-Sheng Lin,  Fenglai Liu,  E. Livshits,  A. Luenser,  P. Manohar,  
 E. Mansoor,  S. F. Manzer,  Shan-Ping Mao,  Yuezhi Mao,  N. Mardirossian,  
 A. V. Marenich,  T. Markovich,  L. A. Martinez-Martinez,  S. A. Maurer,  
 N. J. Mayhall,  S. C. McKenzie,  J.-M. Mewes,  A. F. Morrison,  
 J. W. Mullinax,  K. Nanda,  T. S. Nguyen-Beck,  R. Olivares-Amaya,  
 J. A. Parkhill,  T. M. Perrine,  F. Plasser,  P. Pokhilko,  S. Prager,  
 A. Prociuk,  E. Ramos,  D. R. Rehn,  F. Rob,  M. Schneider,  N. Sergueev,  
 S. M. Sharada,  S. Sharma,  D. W. Small,  T. Stauch,  T. Stein,  
 Yu-Chuan Su,  A. J. W. Thom,  A. Tkatchenko,  T. Tsuchimochi,  N. M. Tubman,  
 L. Vogt,  M. L. Vidal,  O. Vydrov,  M. A. Watson,  J. Wenzel,  
 M. de Wergifosse,  T. A. Wesolowski,  A. White,  J. Witte,  A. Yamada,  
 Jun Yang,  K. Yao,  S. Yeganeh,  S. R. Yost,  Zhi-Qiang You,  A. Zech,  
 Igor Ying Zhang,  Xing Zhang,  Yan Zhao,  Ying Zhu,  B. R. Brooks,  
 G. K. L. Chan,  C. J. Cramer,  M. S. Gordon,  W. J. Hehre,  A. Klamt,  
 M. W. Schmidt,  C. D. Sherrill,  D. G. Truhlar,  A. Aspuru-Guzik,  R. Baer,  
 A. T. Bell,  N. A. Besley,  Jeng-Da Chai,  A. E. DePrince, III,  
 R. A. DiStasio Jr.,  A. Dreuw,  B. D. Dunietz,  T. R. Furlani,  
 Chao-Ping Hsu,  Yousung Jung,  Jing Kong,  D. S. Lambrecht,  WanZhen Liang,  
 C. Ochsenfeld,  V. A. Rassolov,  L. V. Slipchenko,  J. E. Subotnik,  
 T. Van Voorhis,  J. M. Herbert,  A. I. Krylov,  P. M. W. Gill,  M. Head-Gordon

 Contributors to earlier versions of Q-Chem not listed above: 
 R. D. Adamson,  B. Austin,  J. Baker,  G. J. O. Beran,  K. Brandhorst,  
 S. T. Brown,  E. F. C. Byrd,  A. K. Chakraborty,  C.-L. Cheng,  
 Siu Hung Chien,  D. M. Chipman,  D. L. Crittenden,  H. Dachsel,  
 R. J. Doerksen,  A. D. Dutoi,  L. Fusti-Molnar,  W. A. Goddard III,  
 A. Golubeva-Zadorozhnaya,  S. R. Gwaltney,  G. Hawkins,  A. Heyden,  
 S. Hirata,  G. Kedziora,  F. J. Keil,  C. Kelley,  Jihan Kim,  R. A. King,  
 R. Z. Khaliullin,  P. P. Korambath,  W. Kurlancheek,  A. M. Lee,  M. S. Lee,  
 S. V. Levchenko,  Ching Yeh Lin,  D. Liotard,  R. C. Lochan,  I. Lotan,  
 P. E. Maslen,  N. Nair,  D. P. O'Neill,  D. Neuhauser,  E. Neuscamman,  
 C. M. Oana,  R. Olson,  B. Peters,  R. Peverati,  P. A. Pieniazek,  
 Y. M. Rhee,  J. Ritchie,  M. A. Rohrdanz,  E. Rosta,  N. J. Russ,  
 H. F. Schaefer III,  N. E. Schultz,  N. Shenvi,  A. C. Simmonett,  A. Sodt,  
 D. Stuck,  K. S. Thanthiriwatte,  V. Vanovschi,  Tao Wang,  A. Warshel,  
 C. F. Williams,  Q. Wu,  X. Xu,  W. Zhang

 Please cite Q-Chem as follows:
 Y. Shao et al., Mol. Phys. 113, 184-215 (2015)
 DOI: 10.1080/00268976.2014.952696

 Q-Chem 5.1.1 for Intel X86 EM64T Linux

 Parts of Q-Chem use Armadillo 8.300.2 (Tropical Shenanigans).
 http://arma.sourceforge.net/

 Q-Chem begins on Fri Feb 22 07:02:11 2019  

Host: n1056
0

     Scratch files written to /scratch/local/qchem26051//
 Parallel job on  1  processors
Input Ideriv = 2
Curr. Ideriv = -1
Max.  Ideriv = 2

Checking the input file for inconsistencies... 	...done.

--------------------------------------------------------------
User input:
--------------------------------------------------------------
$molecule
0 1
N        1.010145   -0.339756    0.00000
N        0.138737    0.506079    0.00000
F       -1.101521   -0.152850    0.00000
H        1.871520    0.211391    0.00000
$end

$rem
method				cvs-adc(2)-x
ee_singlets			10
basis				gen
purecart			1111
cc_symmetry			false
symmetry			false
threads				30
mem_total			80000
mem_static			2000
adc_davidson_maxsubspace	200
adc_davidson_maxiter		500
cc_rest_occ			3
$end

$basis
****
N     0 
aug-cc-pVTZ
****
F     0 
cc-pVTZ
****
H     0 
cc-pVDZ
****
$end
--------------------------------------------------------------
 ----------------------------------------------------------------
             Standard Nuclear Orientation (Angstroms)
    I     Atom           X                Y                Z
 ----------------------------------------------------------------
    1      N       1.0101449133    -0.3397557216     0.0000000000
    2      N       0.1387366104     0.5060789664    -0.0000000000
    3      F      -1.1015211536    -0.1528504778     0.0000000000
    4      H       1.8715197160     0.2113915869    -0.0000000000
 ----------------------------------------------------------------
 Molecular Point Group                 Cs    NOp =  2
 Largest Abelian Subgroup              Cs    NOp =  2
 Nuclear Repulsion Energy =    68.1355237509 hartrees
 There are       12 alpha and       12 beta electrons
 Requested basis set is non-standard
 There are 41 shells and 127 basis functions

 Total QAlloc Memory Limit  80000 MB
 Mega-Array Size      1956 MB
 MEM_STATIC part      2000 MB

                       Distance Matrix (Angstroms)
             N (  1)   N (  2)   F (  3)
   N (  2)  1.214409
   F (  3)  2.119921  1.404431
   H (  4)  1.022609  1.757663  2.995270
 
 A cutoff of  1.0D-11 yielded    861 shell pairs
 There are      8349 function pairs (     11706 Cartesian)
 
 -------------------------------------------------------
 OpenMP Integral Computing Module                       
 Release: version 1.0, May 2013, Q-Chem Inc. Pittsburgh 
 -------------------------------------------------------
 Integral Job Info:
 Integral job number is                      11
 Integral operator is                         1
 short-range coefficients                     0
 long-range coefficients              100000000
 Omega coefficients                           0
 if combine SR and LR in K                    0
 Integral screening is                        0
 Integral computing path is                   2
 max size of driver memory is            800000
 size of driver memory is                776718
 size of scratch memory is              6691272
 max col of scratch BK array              10000
 max len of scratch array in speh3          662
 max len of scratch index in speh4           32
 max int batch size is                      520
 min int batch size is                       52
 fixed nKL is                                52
 max L of basis functions is                  3
 order of int derivative is                   0
 number of shells is                         41
 number of basis is                         150
 number of cartesian basis is               150
 number of contracted shell pairs           861
 number of primitive shell pairs           3357
 maxK2 (contraction) of shell pair           64
 max number of K2 of shell pair               1
 max number of CS2 of shell pair             81
 max number of PS2 of shell pair            384
 mem total for path MDJ                  560184
 -------------------------------------------------------
 Smallest overlap matrix eigenvalue = 1.02E-04

 Scale SEOQF with 1.000000e-01/1.000000e-01/1.000000e-01

 Standard Electronic Orientation quadrupole field applied
 Nucleus-field energy     =     0.0000000010 hartrees
 Guess MOs from core Hamiltonian diagonalization
 A restricted Hartree-Fock SCF calculation will be
 performed using Pulay DIIS extrapolation
 SCF converges when DIIS error is below 1.0E-08
 using 30 threads for integral computing
 -------------------------------------------------------
 OpenMP Integral computing Module                
 Release: version 2.0, May 2017, Q-Chem Inc. Pleasanton 
 -------------------------------------------------------
 ---------------------------------------
  Cycle       Energy         DIIS Error
 ---------------------------------------
    1    -173.9514692880      1.81E-01
    2    -164.2065697297      8.25E-02
    3    -188.2864513368      1.00E-01
    4    -199.5170891824      6.63E-02
    5    -205.9799146032      3.99E-02
    6    -207.9263546722      2.07E-02
    7    -208.7541128667      7.93E-03
    8    -208.8653803521      2.89E-03
    9    -208.8805889429      1.12E-03
   10    -208.8847575192      4.78E-04
   11    -208.8852599132      8.21E-05
   12    -208.8852871387      1.99E-05
   13    -208.8852896109      8.58E-06
   14    -208.8852899519      3.87E-06
   15    -208.8852900068      1.02E-06
   16    -208.8852900097      1.57E-07
   17    -208.8852900100      4.92E-08
   18    -208.8852900102      1.34E-08
   19    -208.8852900100      3.36E-09 Convergence criterion met
 ---------------------------------------
 SCF time:  CPU 60.23 s  wall 2.06 s
 SCF   energy in the final basis set = -208.88529001
 Total energy in the final basis set = -208.88529001
================================================================================
|                                                                              |
|                                 A D C  M A N                                 |
|                                                                              |
 ------------------------------------------------------------------------------ 
|                                                                              |
| Components:                                                                  |
|                                                                              |
| - libvmm - 1.3-trunk                                                         |
|   Authors:                                                                   |
|   Evgeny Epifanovsky, Ilya Kaliman                                           |
|                                                                              |
| - libtensor - 2.5-trunk                                                      |
|   Authors:                                                                   |
|   Evgeny Epifanovsky, Michael Wormit, Dmitry Zuev, Sam Manzer,               |
|   Ilya Kaliman                                                               |
|                                                                              |
| - libwfa - 1.1-beta                                                          |
|   Authors:                                                                   |
|   Felix Plasser, Stefanie Baeppler, Benjamin Thomitzni, Michael Wormit       |
|                                                                              |
| - libadc - 1.1-trunk                                                         |
|   Authors:                                                                   |
|   Michael Wormit, Adrian L. Dempwolff, Philipp H. P. Harbach,                |
|   Caroline Krauter, Dirk Rehn, Matthias Schneider, Jan Wenzel                |
|                                                                              |
| - adcman - 2.6-trunk                                                         |
|   Authors:                                                                   |
|   Michael Wormit, Adrian L. Dempwolff, Philipp H. P. Harbach,                |
|   Caroline Krauter, Daniel Lefrancois, Jan-Michael Mewes, Dirk Rehn,         |
|   Matthias Schneider, Jan Wenzel, Andreas Dreuw                              |
|                                                                              |
| Authors of earlier versions of ADCMAN:                                       |
| Andreas Dreuw, Jan Hendrik Starcke, Dirk Rehn, Michael Wormit                |
|                                                                              |
================================================================================

 

--------------------------------------------------------------------------------
                                   HF Summary                                   
--------------------------------------------------------------------------------
  Energy:                                                 -208.8852900100 a.u.
  Dip. moment [a.u.]:                  [   1.009792,    0.335379,   -0.000000]
  Total dipole [Debye]:                                               2.704494
  <r^2> [a.u.]:                        [  87.299287,   23.589911,   11.918147]
  Total <r^2> [a.u.]:                                               122.807344
--------------------------------------------------------------------------------

--------------------------------------------------------------------------------
                                 MP(2) Summary                                  
--------------------------------------------------------------------------------
  MP energy contribution:                                   -0.7060534121 a.u.
  Total energy:                                           -209.5913434222 a.u.
  Dip. moment [a.u.]:                  [   0.877004,    0.253716,   -0.000000]
  Total dipole [Debye]:                                               2.320531
  <r^2> [a.u.]:                        [  87.060694,   23.725876,   11.950910]
  Total <r^2> [a.u.]:                                               122.737481
--------------------------------------------------------------------------------
  Starting Davidson for singlet states of irrep A ... 
--------------------------------------------------------------------------------
   It NVec Conv  Avg. Norm  Max. Norm  Conv. states           Remark
--------------------------------------------------------------------------------
        10    0  4.192e-01  1.364e+00 15.2596 n n n n n n n n Guess.
    1   20    0  2.057e-01  1.255e+00 14.7080 n n n n n n n n 
    2   30    0  6.646e-02  4.503e-01 14.6482 n n n n n n n n 
    3   40    0  2.749e-02  1.421e-01 14.6419 n n n n n n n n 
    4   50    0  2.055e-02  1.184e-01 14.6404 n n n n n n n n 
    5   60    0  1.069e-02  5.207e-02 14.6401 n n n n n n n n 
    6   70    0  5.675e-03  2.718e-02 14.6401 n n n n n n n n 
    7   80    0  2.896e-03  1.822e-02 14.6401 n n n n n n n n 
    8   90    0  1.662e-03  1.167e-02 14.6401 n n n n n n n n 
    9  100    0  1.419e-03  1.014e-02 14.6401 n n n n n n n n 
   10  110    0  3.293e-02  3.262e-01 14.6401 n n n n n n n n 
   11  120    0  1.730e-02  1.729e-01 14.6401 n n n n n n n n 
   12  130    0  8.930e-03  8.924e-02 14.6401 n n n n n n n n 
   13  140    0  5.993e-03  5.978e-02 14.6401 n n n n n n n n 
   14  150    1  1.661e-02  1.470e-01 14.6401 y n n n n n n n 
   15  160    1  1.139e-02  1.118e-01 14.6401 y n n n n n n n 
   16  170    1  8.243e-03  8.176e-02 14.6401 y n n n n n n n 
   17  180    1  5.732e-03  5.701e-02 14.6401 y n n n n n n n 
   18  190    2  3.272e-03  3.251e-02 14.6401 y n n n n n y n 
   19  200    3  1.569e-03  1.557e-02 14.6401 y y n n n n y n 
   20   20    3  7.572e-04  7.519e-03 14.6401 y y n n n n y n Subspace collapsed.
   21   30    3  4.734e-04  4.693e-03 14.6401 y y n n n n y n 
   22   40    5  2.496e-04  2.469e-03 14.6401 y y y y n n y n 
   23   50    5  1.896e-04  1.868e-03 14.6401 y y y y n n y n 
   24   60    5  1.146e-04  1.121e-03 14.6401 y y y y n n y n 
   25   70    5  7.609e-05  7.416e-04 14.6401 y y y y n n y n 
   26   80    6  4.916e-05  4.759e-04 14.6401 y y y y n y y n 
   27   90    6  3.893e-05  3.789e-04 14.6401 y y y y n y y n 
   28  100    6  3.355e-05  3.273e-04 14.6401 y y y y n y y n 
   29  110    6  2.584e-05  2.522e-04 14.6401 y y y y n y y n 
   30  119    6  1.845e-05  1.787e-04 14.6401 y y y y n y y n 
   31  128    6  1.189e-05  1.144e-04 14.6401 y y y y n y y n 
   32  137    7  7.041e-06  6.754e-05 14.6401 y y y y n y y y 
   33  146    8  3.702e-06  3.520e-05 14.6401 y y y y y y y y 
   34  155    8  2.201e-06  2.064e-05 14.6401 y y y y y y y y 
   35  164    8  1.197e-06  1.096e-05 14.6401 y y y y y y y y 
   36  173    8  6.703e-07  5.937e-06 14.6401 y y y y y y y y 
   37  181    8  3.758e-07  3.352e-06 14.6401 y y y y y y y y 
   38  189    9  2.061e-07  1.883e-06 14.6401 y y y y y y y y 
   39  197   10  1.025e-07  9.437e-07 14.6401 y y y y y y y y Converged.
--------------------------------------------------------------------------------
  Davidson Summary: 
 ------------------------------------------------------------
  State  0: excitation energy =  14.6401 a.u.   (converged)
  State  1: excitation energy =  14.7240 a.u.   (converged)
  State  2: excitation energy =  14.8105 a.u.   (converged)
  State  3: excitation energy =  14.8328 a.u.   (converged)
  State  4: excitation energy =  14.8508 a.u.   (converged)
  State  5: excitation energy =  14.9012 a.u.   (converged)
  State  6: excitation energy =  14.9052 a.u.   (converged)
  State  7: excitation energy =  14.9230 a.u.   (converged)
  State  8: excitation energy =  14.9324 a.u.   (converged)
  State  9: excitation energy =  14.9605 a.u.   (converged)
 ------------------------------------------------------------


--------------------------------------------------------------------------------
                             Excited State Summary
--------------------------------------------------------------------------------
--------------------------------------------------------------------------------

  Excited state 1 (singlet, A)                                     [converged]
  ----------------------------------------------------------------------------
  Term symbol:  2 (1) A                                     R^2 =  1.08232e-12

  Total energy:                                           -194.9512753983 a.u.
  Excitation energy:                                             398.376511 eV

  Osc. strength:                                                      0.047050
  Trans. dip. moment [a.u.]:           [   0.000000,    0.000000,   -0.069431]
  <i|r^2|0> [a.u.]:                    [  -0.000000,   -0.000000,    0.000000]


  V1^2 = 0.7646, V2^2 = 0.2354

  Important amplitudes:
     core i     occ j       vir a       vir b          v   
    --------------------------------------------------------
     3 (A) A               14 (A) A                  0.5349
     3 (A) A               20 (A) A                 -0.2535
    --------------------------------------------------------
  ----------------------------------------------------------------------------


  Excited state 2 (singlet, A)                                     [converged]
  ----------------------------------------------------------------------------
  Term symbol:  3 (1) A                                     R^2 =  1.21693e-12

  Total energy:                                           -194.8673801724 a.u.
  Excitation energy:                                             400.659417 eV

  Osc. strength:                                                      0.053993
  Trans. dip. moment [a.u.]:           [  -0.000000,    0.000000,    0.074166]
  <i|r^2|0> [a.u.]:                    [   0.000000,   -0.000000,   -0.000000]


  V1^2 = 0.7560, V2^2 = 0.2440

  Important amplitudes:
     core i     occ j       vir a       vir b          v   
    --------------------------------------------------------
     2 (A) A               14 (A) A                  0.5373
     2 (A) A               20 (A) A                 -0.2505
    --------------------------------------------------------
  ----------------------------------------------------------------------------


  Excited state 3 (singlet, A)                                     [converged]
  ----------------------------------------------------------------------------
  Term symbol:  4 (1) A                                     R^2 =  6.94925e-12

  Total energy:                                           -194.7808342371 a.u.
  Excitation energy:                                             403.014451 eV

  Osc. strength:                                                      0.001055
  Trans. dip. moment [a.u.]:           [  -0.010207,    0.001632,   -0.000000]
  <i|r^2|0> [a.u.]:                    [   0.045951,    0.006071,    0.005555]


  V1^2 = 0.7305, V2^2 = 0.2695

  Important amplitudes:
     core i     occ j       vir a       vir b          v   
    --------------------------------------------------------
     3 (A) A               21 (A) A                 -0.3464
     3 (A) A               18 (A) A                  0.2529
    --------------------------------------------------------
  ----------------------------------------------------------------------------


  Excited state 4 (singlet, A)                                     [converged]
  ----------------------------------------------------------------------------
  Term symbol:  5 (1) A                                     R^2 =  1.57214e-11

  Total energy:                                           -194.7585813347 a.u.
  Excitation energy:                                             403.619983 eV

  Osc. strength:                                                      0.017015
  Trans. dip. moment [a.u.]:           [   0.036652,    0.019424,   -0.000000]
  <i|r^2|0> [a.u.]:                    [  -0.142362,    0.021485,   -0.003567]


  V1^2 = 0.7535, V2^2 = 0.2465

  Important amplitudes:
     core i     occ j       vir a       vir b          v   
    --------------------------------------------------------
     3 (A) A               15 (A) A                  0.3350
     3 (A) A               13 (A) A                  0.3320
    --------------------------------------------------------
  ----------------------------------------------------------------------------


  Excited state 5 (singlet, A)                                     [converged]
  ----------------------------------------------------------------------------
  Term symbol:  6 (1) A                                     R^2 =  9.75828e-09

  Total energy:                                           -194.7405240974 a.u.
  Excitation energy:                                             404.111346 eV

  Osc. strength:                                                      0.062911
  Trans. dip. moment [a.u.]:           [   0.067602,    0.042240,    0.000000]
  <i|r^2|0> [a.u.]:                    [  -0.031343,   -0.075208,    0.007600]


  V1^2 = 0.7761, V2^2 = 0.2239

  Important amplitudes:
     core i     occ j       vir a       vir b          v   
    --------------------------------------------------------
     2 (A) A               23 (A) A                 -0.3324
     2 (A) A               21 (A) A                  0.3184
    --------------------------------------------------------
  ----------------------------------------------------------------------------


  Excited state 6 (singlet, A)                                     [converged]
  ----------------------------------------------------------------------------
  Term symbol:  7 (1) A                                     R^2 =  6.44255e-10

  Total energy:                                           -194.6901821142 a.u.
  Excitation energy:                                             405.481221 eV

  Osc. strength:                                                      0.000155
  Trans. dip. moment [a.u.]:           [  -0.003445,   -0.001939,    0.000000]
  <i|r^2|0> [a.u.]:                    [   0.010782,   -0.004438,   -0.003041]


  V1^2 = 0.7472, V2^2 = 0.2528

  Important amplitudes:
     core i     occ j       vir a       vir b          v   
    --------------------------------------------------------
     3 (A) A               13 (A) A                  0.4188
     3 (A) A               15 (A) A                 -0.3921
    --------------------------------------------------------
  ----------------------------------------------------------------------------


  Excited state 7 (singlet, A)                                     [converged]
  ----------------------------------------------------------------------------
  Term symbol:  8 (1) A                                     R^2 =  4.26867e-12

  Total energy:                                           -194.6861074539 a.u.
  Excitation energy:                                             405.592098 eV

  Osc. strength:                                                      0.006282
  Trans. dip. moment [a.u.]:           [  -0.000000,   -0.000000,    0.025142]
  <i|r^2|0> [a.u.]:                    [   0.000000,    0.000000,   -0.000000]


  V1^2 = 0.7521, V2^2 = 0.2479

  Important amplitudes:
     core i     occ j       vir a       vir b          v   
    --------------------------------------------------------
     3 (A) A               16 (A) A                  0.5723
     3 (A) A               14 (A) A                  0.1788
    --------------------------------------------------------
  ----------------------------------------------------------------------------


  Excited state 8 (singlet, A)                                     [converged]
  ----------------------------------------------------------------------------
  Term symbol:  9 (1) A                                     R^2 =  7.86988e-09

  Total energy:                                           -194.6683641875 a.u.
  Excitation energy:                                             406.074917 eV

  Osc. strength:                                                      0.009219
  Trans. dip. moment [a.u.]:           [   0.012161,    0.027906,    0.000000]
  <i|r^2|0> [a.u.]:                    [  -0.043652,    0.037405,    0.001781]


  V1^2 = 0.7507, V2^2 = 0.2493

  Important amplitudes:
     core i     occ j       vir a       vir b          v   
    --------------------------------------------------------
     3 (A) A               17 (A) A                  0.4900
     3 (A) A               19 (A) A                  0.2839
    --------------------------------------------------------
  ----------------------------------------------------------------------------


  Excited state 9 (singlet, A)                                     [converged]
  ----------------------------------------------------------------------------
  Term symbol:  10 (1) A                                    R^2 =  9.43739e-07

  Total energy:                                           -194.6589660893 a.u.
  Excitation energy:                                             406.330652 eV

  Osc. strength:                                                      0.001737
  Trans. dip. moment [a.u.]:           [   0.011424,   -0.006633,   -0.000000]
  <i|r^2|0> [a.u.]:                    [  -0.001460,    0.015518,    0.003077]


  V1^2 = 0.7274, V2^2 = 0.2726

  Important amplitudes:
     core i     occ j       vir a       vir b          v   
    --------------------------------------------------------
     2 (A) A               13 (A) A                 -0.3908
     2 (A) A               15 (A) A                 -0.3759
    --------------------------------------------------------
  ----------------------------------------------------------------------------


  Excited state 10 (singlet, A)                                     [converged]
  ----------------------------------------------------------------------------
  Term symbol:  11 (1) A                                    R^2 =  4.00393e-07

  Total energy:                                           -194.6308368753 a.u.
  Excitation energy:                                             407.096087 eV

  Osc. strength:                                                      0.000946
  Trans. dip. moment [a.u.]:           [   0.008389,    0.004946,    0.000000]
  <i|r^2|0> [a.u.]:                    [  -0.034299,    0.004434,   -0.001448]


  V1^2 = 0.7459, V2^2 = 0.2541

  Important amplitudes:
     core i     occ j       vir a       vir b          v   
    --------------------------------------------------------
     3 (A) A               19 (A) A                 -0.4796
     3 (A) A               17 (A) A                  0.2315
    --------------------------------------------------------
  ----------------------------------------------------------------------------


--------------------------------------------------------------------------------
  Time of ADC calculation:  CPU 14701.11 s  wall 905.52 s
================================================================================
 
 --------------------------------------------------------------
             Orbital Energies (a.u.) and Symmetries
 --------------------------------------------------------------
 
 Alpha MOs, Restricted
 -- Occupied --                  
-26.322 -15.763 -15.671  -1.642  -1.399  -0.941  -0.771  -0.714
  1 A'    2 A'    3 A'    4 A'    5 A'    6 A'    7 A'    8 A'                 
 -0.709  -0.618  -0.544  -0.490
  1 A"    9 A'    2 A"   10 A'                                                 
 -- Virtual --                   
  0.076   0.082   0.092   0.129   0.136   0.149   0.172   0.180
 11 A'    3 A"   12 A'    4 A"   13 A'   14 A'   15 A'    5 A"                 
  0.259   0.282   0.307   0.412   0.456   0.462   0.508   0.553
 16 A'   17 A'   18 A'    6 A"   19 A'   20 A'   21 A'    7 A"                 
  0.560   0.568   0.599   0.605   0.622   0.692   0.737   0.783
 22 A'    8 A"   23 A'    9 A"   24 A'   25 A'   10 A"   26 A'                 
  0.816   0.896   0.957   1.014   1.030   1.103   1.119   1.148
 27 A'   28 A'   29 A'   11 A"   30 A'   12 A"   31 A'   32 A'                 
  1.278   1.296   1.365   1.371   1.422   1.456   1.525   1.552
 33 A'   13 A"   14 A"   34 A'   15 A"   35 A'   36 A'   16 A"                 
  1.577   1.604   1.612   1.676   1.680   1.717   1.778   1.906
 37 A'   17 A"   38 A'   39 A'   18 A"   40 A'   19 A"   41 A'                 
  2.026   2.051   2.110   2.163   2.199   2.296   2.362   2.399
 42 A'   20 A"   21 A"   43 A'   44 A'   45 A'   46 A'   22 A"                 
  2.451   2.480   2.481   2.631   2.703   2.767   2.963   3.006
 47 A'   48 A'   23 A"   49 A'   24 A"   50 A'   51 A'   25 A"                 
  3.035   3.098   3.363   3.523   3.826   4.054   4.065   4.335
 52 A'   53 A'   26 A"   54 A'   55 A'   56 A'   27 A"   57 A'                 
  4.445   4.468   4.550   4.618   4.623   4.689   4.713   4.918
 28 A"   29 A"   58 A'   59 A'   60 A'   30 A"   61 A'   31 A"                 
  4.959   4.986   5.013   5.140   5.151   5.233   5.352   5.428
 62 A'   63 A'   32 A"   64 A'   33 A"   65 A'   34 A"   66 A'                 
  5.432   5.437   5.501   5.529   5.550   5.750   5.829   6.316
 35 A"   67 A'   36 A"   37 A"   68 A'   69 A'   70 A'   71 A'                 
  6.388   6.492   6.571   6.812   7.409   7.414   7.481   7.548
 38 A"   72 A'   73 A'   74 A'   39 A"   75 A'   40 A"   76 A'                 
  7.764   7.861   8.099   8.993   9.020   9.378   9.525   9.685
 41 A"   77 A'   78 A'   42 A"   79 A'   43 A"   80 A'   81 A'                 
 11.507  12.799  15.258
 82 A'   83 A'   84 A'                                                         
 
 Beta MOs, Restricted
 -- Occupied --                  
-26.322 -15.763 -15.671  -1.642  -1.399  -0.941  -0.771  -0.714
  1 A'    2 A'    3 A'    4 A'    5 A'    6 A'    7 A'    8 A'                 
 -0.709  -0.618  -0.544  -0.490
  1 A"    9 A'    2 A"   10 A'                                                 
 -- Virtual --                   
  0.076   0.082   0.092   0.129   0.136   0.149   0.172   0.180
 11 A'    3 A"   12 A'    4 A"   13 A'   14 A'   15 A'    5 A"                 
  0.259   0.282   0.307   0.412   0.456   0.462   0.508   0.553
 16 A'   17 A'   18 A'    6 A"   19 A'   20 A'   21 A'    7 A"                 
  0.560   0.568   0.599   0.605   0.622   0.692   0.737   0.783
 22 A'    8 A"   23 A'    9 A"   24 A'   25 A'   10 A"   26 A'                 
  0.816   0.896   0.957   1.014   1.030   1.103   1.119   1.148
 27 A'   28 A'   29 A'   11 A"   30 A'   12 A"   31 A'   32 A'                 
  1.278   1.296   1.365   1.371   1.422   1.456   1.525   1.552
 33 A'   13 A"   14 A"   34 A'   15 A"   35 A'   36 A'   16 A"                 
  1.577   1.604   1.612   1.676   1.680   1.717   1.778   1.906
 37 A'   17 A"   38 A'   39 A'   18 A"   40 A'   19 A"   41 A'                 
  2.026   2.051   2.110   2.163   2.199   2.296   2.362   2.399
 42 A'   20 A"   21 A"   43 A'   44 A'   45 A'   46 A'   22 A"                 
  2.451   2.480   2.481   2.631   2.703   2.767   2.963   3.006
 47 A'   48 A'   23 A"   49 A'   24 A"   50 A'   51 A'   25 A"                 
  3.035   3.098   3.363   3.523   3.826   4.054   4.065   4.335
 52 A'   53 A'   26 A"   54 A'   55 A'   56 A'   27 A"   57 A'                 
  4.445   4.468   4.550   4.618   4.623   4.689   4.713   4.918
 28 A"   29 A"   58 A'   59 A'   60 A'   30 A"   61 A'   31 A"                 
  4.959   4.986   5.013   5.140   5.151   5.233   5.352   5.428
 62 A'   63 A'   32 A"   64 A'   33 A"   65 A'   34 A"   66 A'                 
  5.432   5.437   5.501   5.529   5.550   5.750   5.829   6.316
 35 A"   67 A'   36 A"   37 A"   68 A'   69 A'   70 A'   71 A'                 
  6.388   6.492   6.571   6.812   7.409   7.414   7.481   7.548
 38 A"   72 A'   73 A'   74 A'   39 A"   75 A'   40 A"   76 A'                 
  7.764   7.861   8.099   8.993   9.020   9.378   9.525   9.685
 41 A"   77 A'   78 A'   42 A"   79 A'   43 A"   80 A'   81 A'                 
 11.507  12.799  15.258
 82 A'   83 A'   84 A'                                                         
 --------------------------------------------------------------
 
          Ground-State Mulliken Net Atomic Charges

     Atom                 Charge (a.u.)
  ----------------------------------------
      1 N                     0.084592
      2 N                     0.014957
      3 F                    -0.173738
      4 H                     0.074189
  ----------------------------------------
  Sum of atomic charges =    -0.000000

 -----------------------------------------------------------------
                    Cartesian Multipole Moments
 -----------------------------------------------------------------
    Charge (ESU x 10^10)
                -0.0000
    Dipole Moment (Debye)
         X       2.5666      Y       0.8524      Z      -0.0000
       Tot       2.7045
    Quadrupole Moments (Debye-Ang)
        XX     -13.1900     XY       1.1939     YY     -18.0122
        XZ       0.0000     YZ       0.0000     ZZ     -16.0303
    Octopole Moments (Debye-Ang^2)
       XXX       4.7979    XXY       2.0638    XYY      -2.7694
       YYY      -0.7686    XXZ      -0.0000    XYZ      -0.0000
       YYZ       0.0000    XZZ      -1.8877    YZZ      -0.1462
       ZZZ      -0.0000
    Hexadecapole Moments (Debye-Ang^3)
      XXXX     -73.8778   XXXY       5.5129   XXYY     -20.2528
      XYYY       2.6211   YYYY     -30.5072   XXXZ       0.0000
      XXYZ       0.0000   XYYZ      -0.0000   YYYZ       0.0000
      XXZZ     -17.5776   XYZZ       0.4486   YYZZ      -6.8669
      XZZZ       0.0000   YZZZ       0.0000   ZZZZ     -12.9865
 -----------------------------------------------------------------
Archival summary:
1\1\n1056\SP\HF\BasisUnspecified\121\x_thofr\FriFeb2207:17:582019FriFeb2207:17:582019\0\\#,HF,BasisUnspecified,\\0,1\N\N,1,1.21441\H,2,1.02261,1,103.24\F,1,1.40443,2,107.872,3,180,0\\HF=-208.88529\\@

 Total job time:  946.39s(wall), 14816.43s(cpu) 
 Fri Feb 22 07:17:58 2019

        *************************************************************
        *                                                           *
        *  Thank you very much for using Q-Chem.  Have a nice day.  *
        *                                                           *
        *************************************************************


0 sent ACK to 0 
now end server 0 ... 
