mFile = /home/x_iubru/qchem_exe/bin/mpi/machines
Process 0 of 1 is on n775 - thread support 0
initial socket setup ...start
initial socket setup ...done 
now start server 0 ... 
Q-Chem Developer Version!
                  Welcome to Q-Chem
     A Quantum Leap Into The Future Of Chemistry


 Q-Chem 5.1, Q-Chem, Inc., Pleasanton, CA (2018)

 Yihan Shao,  Zhengting Gan,  E. Epifanovsky,  A. T. B. Gilbert,  M. Wormit,  
 J. Kussmann,  A. W. Lange,  A. Behn,  Jia Deng,  Xintian Feng,  D. Ghosh,  
 M. Goldey,  P. R. Horn,  L. D. Jacobson,  I. Kaliman,  T. Kus,  A. Landau,  
 Jie Liu,  E. I. Proynov,  R. M. Richard,  R. P. Steele,  E. J. Sundstrom,  
 H. L. Woodcock III,  P. M. Zimmerman,  D. Zuev,  B. Albrecht,  E. Alguire,  
 S. A. Baeppler,  D. Barton,  Z. Benda,  Y. A. Bernard,  E. J. Berquist,  
 K. B. Bravaya,  H. Burton,  D. Casanova,  Chun-Min Chang,  Yunqing Chen,  
 A. Chien,  K. D. Closser,  M. P. Coons,  S. Coriani,  S. Dasgupta,  
 A. L. Dempwolff,  M. Diedenhofen,  Hainam Do,  R. G. Edgar,  Po-Tung Fang,  
 S. Faraji,  S. Fatehi,  Qingguo Feng,  K. D. Fenk,  J. Fosso-Tande,  
 Qinghui Ge,  A. Ghysels,  G. Gidofalvi,  J. Gomes,  J. Gonthier,  A. Gunina,  
 D. Hait,  M. W. D. Hanson-Heine,  P. H. P. Harbach,  A. W. Hauser,  
 J. E. Herr,  E. G. Hohenstein,  Z. C. Holden,  Kerwin Hui,  B. C. Huynh,  
 T.-C. Jagau,  Hyunjun Ji,  B. Kaduk,  K. Khistyaev,  Jaehoon Kim,  
 P. Klunzinger,  K. Koh,  D. Kosenkov,  L. Koulias,  T. Kowalczyk,  
 C. M. Krauter,  A. Kunitsa,  Ka Un Lao,  A. Laurent,  K. V. Lawler,  
 Joonho Lee,  D. Lefrancois,  S. Lehtola,  D. S. Levine,  Yi-Pei Li,  
 You-Sheng Lin,  Fenglai Liu,  E. Livshits,  A. Luenser,  P. Manohar,  
 E. Mansoor,  S. F. Manzer,  Shan-Ping Mao,  Yuezhi Mao,  N. Mardirossian,  
 A. V. Marenich,  T. Markovich,  L. A. Martinez-Martinez,  S. A. Maurer,  
 N. J. Mayhall,  S. C. McKenzie,  J.-M. Mewes,  A. F. Morrison,  
 J. W. Mullinax,  K. Nanda,  T. S. Nguyen-Beck,  R. Olivares-Amaya,  
 J. A. Parkhill,  T. M. Perrine,  F. Plasser,  P. Pokhilko,  S. Prager,  
 A. Prociuk,  E. Ramos,  D. R. Rehn,  F. Rob,  M. Schneider,  N. Sergueev,  
 S. M. Sharada,  S. Sharma,  D. W. Small,  T. Stauch,  T. Stein,  
 Yu-Chuan Su,  A. J. W. Thom,  A. Tkatchenko,  T. Tsuchimochi,  N. M. Tubman,  
 L. Vogt,  M. L. Vidal,  O. Vydrov,  M. A. Watson,  J. Wenzel,  
 M. de Wergifosse,  T. A. Wesolowski,  A. White,  J. Witte,  A. Yamada,  
 Jun Yang,  K. Yao,  S. Yeganeh,  S. R. Yost,  Zhi-Qiang You,  A. Zech,  
 Igor Ying Zhang,  Xing Zhang,  Yan Zhao,  Ying Zhu,  B. R. Brooks,  
 G. K. L. Chan,  C. J. Cramer,  M. S. Gordon,  W. J. Hehre,  A. Klamt,  
 M. W. Schmidt,  C. D. Sherrill,  D. G. Truhlar,  A. Aspuru-Guzik,  R. Baer,  
 A. T. Bell,  N. A. Besley,  Jeng-Da Chai,  A. E. DePrince, III,  
 R. A. DiStasio Jr.,  A. Dreuw,  B. D. Dunietz,  T. R. Furlani,  
 Chao-Ping Hsu,  Yousung Jung,  Jing Kong,  D. S. Lambrecht,  WanZhen Liang,  
 C. Ochsenfeld,  V. A. Rassolov,  L. V. Slipchenko,  J. E. Subotnik,  
 T. Van Voorhis,  J. M. Herbert,  A. I. Krylov,  P. M. W. Gill,  M. Head-Gordon

 Contributors to earlier versions of Q-Chem not listed above: 
 R. D. Adamson,  B. Austin,  J. Baker,  G. J. O. Beran,  K. Brandhorst,  
 S. T. Brown,  E. F. C. Byrd,  A. K. Chakraborty,  C.-L. Cheng,  
 Siu Hung Chien,  D. M. Chipman,  D. L. Crittenden,  H. Dachsel,  
 R. J. Doerksen,  A. D. Dutoi,  L. Fusti-Molnar,  W. A. Goddard III,  
 A. Golubeva-Zadorozhnaya,  S. R. Gwaltney,  G. Hawkins,  A. Heyden,  
 S. Hirata,  G. Kedziora,  F. J. Keil,  C. Kelley,  Jihan Kim,  R. A. King,  
 R. Z. Khaliullin,  P. P. Korambath,  W. Kurlancheek,  A. M. Lee,  M. S. Lee,  
 S. V. Levchenko,  Ching Yeh Lin,  D. Liotard,  R. C. Lochan,  I. Lotan,  
 P. E. Maslen,  N. Nair,  D. P. O'Neill,  D. Neuhauser,  E. Neuscamman,  
 C. M. Oana,  R. Olson,  B. Peters,  R. Peverati,  P. A. Pieniazek,  
 Y. M. Rhee,  J. Ritchie,  M. A. Rohrdanz,  E. Rosta,  N. J. Russ,  
 H. F. Schaefer III,  N. E. Schultz,  N. Shenvi,  A. C. Simmonett,  A. Sodt,  
 D. Stuck,  K. S. Thanthiriwatte,  V. Vanovschi,  Tao Wang,  A. Warshel,  
 C. F. Williams,  Q. Wu,  X. Xu,  W. Zhang

 Please cite Q-Chem as follows:
 Y. Shao et al., Mol. Phys. 113, 184-215 (2015)
 DOI: 10.1080/00268976.2014.952696

 Q-Chem 5.1.1 for Intel X86 EM64T Linux

 Parts of Q-Chem use Armadillo 8.300.2 (Tropical Shenanigans).
 http://arma.sourceforge.net/

 Q-Chem begins on Thu Mar 28 09:03:15 2019  

Host: n775
0

     Scratch files written to /scratch/local/qchem113785//
 Parallel job on  1  processors
Input Ideriv = 2
Curr. Ideriv = -1
Max.  Ideriv = 2
Symmetry disabled for mixed basis and EFP jobs.

Checking the input file for inconsistencies... 	...done.

--------------------------------------------------------------
User input:
--------------------------------------------------------------
$molecule
0 1
 C    -0.258755    -1.075115     0.000000
 C    -0.373897     1.119080     0.000000
 C     0.929706     0.693233     0.000000
 N    -1.119573    -0.025708     0.000000 ! different
 N     0.994934    -0.672206     0.000000
 H    -2.120859    -0.080300     0.000000
 H    -0.816615     2.092834     0.000000
 H     1.813291     1.298683     0.000000
 H    -0.593771    -2.092721     0.000000
$end

$rem
method				cvs-adc(2)-x
ee_singlets			12
basis				mixed
purecart			1111
cc_symmetry			false
symmetry			false
threads				30
mem_total			80000
mem_static			2000
adc_davidson_maxsubspace	200
adc_davidson_maxiter		500
cc_rest_occ			5
gui				2
$end

$basis
****
C     1 
aug-cc-pVTZ
****
C     2 
aug-cc-pVTZ
****
C     3
aug-cc-pVTZ
****
N     4 
cc-pVTZ
****
N     5
aug-cc-pVTZ
****
H     6 
cc-pVDZ
****
H     7 
cc-pVDZ
****
H     8 
cc-pVDZ
****
H     9 
cc-pVDZ
****
$end
--------------------------------------------------------------
 ----------------------------------------------------------------
             Standard Nuclear Orientation (Angstroms)
    I     Atom           X                Y                Z
 ----------------------------------------------------------------
    1      C      -0.2587550000    -1.0751150000     0.0000000000
    2      C      -0.3738970000     1.1190800000     0.0000000000
    3      C       0.9297060000     0.6932330000     0.0000000000
    4      N      -1.1195730000    -0.0257080000     0.0000000000
    5      N       0.9949340000    -0.6722060000     0.0000000000
    6      H      -2.1208590000    -0.0803000000     0.0000000000
    7      H      -0.8166150000     2.0928340000     0.0000000000
    8      H       1.8132910000     1.2986830000     0.0000000000
    9      H      -0.5937710000    -2.0927210000     0.0000000000
 ----------------------------------------------------------------
 Nuclear Repulsion Energy =   163.9214566311 hartrees
 There are       18 alpha and       18 beta electrons
 Requested basis set is non-standard
 There are 78 shells and 234 basis functions

 Total QAlloc Memory Limit  80000 MB
 Mega-Array Size      1956 MB
 MEM_STATIC part      2000 MB

                       Distance Matrix (Angstroms)
             C (  1)   C (  2)   C (  3)   N (  4)   N (  5)   H (  6)
   C (  2)  2.197214
   C (  3)  2.130609  1.371396
   N (  4)  1.357300  1.366226  2.171732
   N (  5)  1.316842  2.254419  1.366996  2.211131
   H (  6)  2.111182  2.119054  3.147110  1.002773  3.171517
   H (  7)  3.216692  1.069671  2.237972  2.140094  3.305625  2.534475
   H (  8)  3.150919  2.194550  1.071117  3.218028  2.134036  4.168828
   H (  9)  1.071335  3.219318  3.175299  2.132841  2.131161  2.526230
             H (  7)   H (  8)
   H (  8)  2.747195
   H (  9)  4.191483  4.158794
 
 A cutoff of  1.0D-11 yielded   3081 shell pairs
 There are     27893 function pairs (     38634 Cartesian)
 
 -------------------------------------------------------
 OpenMP Integral Computing Module                       
 Release: version 1.0, May 2013, Q-Chem Inc. Pittsburgh 
 -------------------------------------------------------
 Integral Job Info:
 Integral job number is                      11
 Integral operator is                         1
 short-range coefficients                     0
 long-range coefficients              100000000
 Omega coefficients                           0
 if combine SR and LR in K                    0
 Integral screening is                        0
 Integral computing path is                   2
 max size of driver memory is            800000
 size of driver memory is                776718
 size of scratch memory is              6691272
 max col of scratch BK array              10000
 max len of scratch array in speh3          662
 max len of scratch index in speh4           32
 max int batch size is                      520
 min int batch size is                       52
 fixed nKL is                                52
 max L of basis functions is                  3
 order of int derivative is                   0
 number of shells is                         78
 number of basis is                         275
 number of cartesian basis is               275
 number of contracted shell pairs          3081
 number of primitive shell pairs          10799
 maxK2 (contraction) of shell pair           64
 max number of K2 of shell pair               1
 max number of CS2 of shell pair            330
 max number of PS2 of shell pair           1160
 mem total for path MDJ                  643512
 -------------------------------------------------------
 Smallest overlap matrix eigenvalue = 3.40E-05

 Scale SEOQF with 1.000000e-01/1.000000e-01/1.000000e-01

 Standard Electronic Orientation quadrupole field applied
 Nucleus-field energy     =     0.0000000033 hartrees
 Guess MOs from core Hamiltonian diagonalization
 A restricted Hartree-Fock SCF calculation will be
 performed using Pulay DIIS extrapolation
 SCF converges when DIIS error is below 1.0E-08
 using 30 threads for integral computing
 -------------------------------------------------------
 OpenMP Integral computing Module                
 Release: version 2.0, May 2017, Q-Chem Inc. Pleasanton 
 -------------------------------------------------------
 ---------------------------------------
  Cycle       Energy         DIIS Error
 ---------------------------------------
    1    -177.1019787413      9.61E-02
    2    -168.0735646697      4.67E-02
    3    -198.2686932426      5.60E-02
    4    -220.5971553401      2.50E-02
    5    -223.1272766495      1.51E-02
    6    -224.5769773078      5.85E-03
    7    -224.8781686222      9.15E-04
    8    -224.8903792588      2.87E-04
    9    -224.8912776986      1.23E-04
   10    -224.8914935856      5.24E-05
   11    -224.8915414503      2.59E-05
   12    -224.8915536886      8.03E-06
   13    -224.8915554948      3.11E-06
   14    -224.8915556673      9.02E-07
   15    -224.8915556868      4.13E-07
   16    -224.8915556891      1.19E-07
   17    -224.8915556895      3.94E-08
   18    -224.8915556893      1.22E-08
   19    -224.8915556891      3.57E-09 Convergence criterion met
 ---------------------------------------
 SCF time:  CPU 450.97 s  wall 15.52 s
 SCF   energy in the final basis set = -224.89155569
 Total energy in the final basis set = -224.89155569
================================================================================
|                                                                              |
|                                 A D C  M A N                                 |
|                                                                              |
 ------------------------------------------------------------------------------ 
|                                                                              |
| Components:                                                                  |
|                                                                              |
| - libvmm - 1.3-trunk                                                         |
|   Authors:                                                                   |
|   Evgeny Epifanovsky, Ilya Kaliman                                           |
|                                                                              |
| - libtensor - 2.5-trunk                                                      |
|   Authors:                                                                   |
|   Evgeny Epifanovsky, Michael Wormit, Dmitry Zuev, Sam Manzer,               |
|   Ilya Kaliman                                                               |
|                                                                              |
| - libwfa - 1.1-beta                                                          |
|   Authors:                                                                   |
|   Felix Plasser, Stefanie Baeppler, Benjamin Thomitzni, Michael Wormit       |
|                                                                              |
| - libadc - 1.1-trunk                                                         |
|   Authors:                                                                   |
|   Michael Wormit, Adrian L. Dempwolff, Philipp H. P. Harbach,                |
|   Caroline Krauter, Dirk Rehn, Matthias Schneider, Jan Wenzel                |
|                                                                              |
| - adcman - 2.6-trunk                                                         |
|   Authors:                                                                   |
|   Michael Wormit, Adrian L. Dempwolff, Philipp H. P. Harbach,                |
|   Caroline Krauter, Daniel Lefrancois, Jan-Michael Mewes, Dirk Rehn,         |
|   Matthias Schneider, Jan Wenzel, Andreas Dreuw                              |
|                                                                              |
| Authors of earlier versions of ADCMAN:                                       |
| Andreas Dreuw, Jan Hendrik Starcke, Dirk Rehn, Michael Wormit                |
|                                                                              |
================================================================================

 

--------------------------------------------------------------------------------
                                   HF Summary                                   
--------------------------------------------------------------------------------
  Energy:                                                 -224.8915556891 a.u.
  Dip. moment [a.u.]:                  [  -1.498407,    0.348746,   -0.000000]
  Total dipole [Debye]:                                               3.910367
  <r^2> [a.u.]:                        [ 129.825688,  130.183419,   24.215965]
  Total <r^2> [a.u.]:                                               284.225072
--------------------------------------------------------------------------------

--------------------------------------------------------------------------------
                                 MP(2) Summary                                  
--------------------------------------------------------------------------------
  MP energy contribution:                                   -0.9609396659 a.u.
  Total energy:                                           -225.8524953550 a.u.
  Dip. moment [a.u.]:                  [  -1.468503,    0.388921,   -0.000000]
  Total dipole [Debye]:                                               3.861249
  <r^2> [a.u.]:                        [ 129.660334,  130.238015,   24.014615]
  Total <r^2> [a.u.]:                                               283.912964
--------------------------------------------------------------------------------
  Starting Davidson for singlet states of irrep A ... 
--------------------------------------------------------------------------------
   It NVec Conv  Avg. Norm  Max. Norm  Conv. states           Remark
--------------------------------------------------------------------------------
        12    0  3.141e-01  1.135e+00 11.1304 n n n n n n n n Guess.
    1   24    0  1.808e-01  9.322e-01 10.6295 n n n n n n n n 
    2   36    0  5.939e-02  3.221e-01 10.5504 n n n n n n n n 
    3   48    0  2.302e-02  1.712e-01 10.5312 n n n n n n n n 
    4   60    0  2.580e-02  2.173e-01 10.5263 n n n n n n n n 
    5   72    0  1.448e-02  8.519e-02 10.5240 n n n n n n n n 
    6   84    0  9.579e-03  4.603e-02 10.5234 n n n n n n n n 
    7   96    0  7.535e-03  5.056e-02 10.5232 n n n n n n n n 
    8  108    0  7.422e-03  6.211e-02 10.5231 n n n n n n n n 
    9  120    0  5.676e-03  4.864e-02 10.5230 n n n n n n n n 
   10  132    0  4.331e-03  3.765e-02 10.5230 n n n n n n n n 
   11  144    0  3.404e-03  3.113e-02 10.5230 n n n n n n n n 
   12  156    0  2.584e-03  2.633e-02 10.5230 n n n n n n n n 
   13  168    0  1.991e-03  2.090e-02 10.5230 n n n n n n n n 
   14  180    0  1.563e-03  1.536e-02 10.5230 n n n n n n n n 
   15  192    0  1.185e-03  9.540e-03 10.5230 n n n n n n n n 
   16  200    0  8.525e-04  7.597e-03 10.5230 n n n n n n n n 
   17   24    0  4.731e-04  4.368e-03 10.5230 n n n n n n n n Subspace collapsed.
   18   36    0  3.792e-04  3.386e-03 10.5230 n n n n n n n n 
   19   48    0  2.370e-04  1.936e-03 10.5230 n n n n n n n n 
   20   60    0  1.931e-04  1.437e-03 10.5230 n n n n n n n n 
   21   72    0  1.380e-04  1.083e-03 10.5230 n n n n n n n n 
   22   84    1  1.114e-04  9.501e-04 10.5230 y n n n n n n n 
   23   96    1  8.366e-05  7.740e-04 10.5230 y n n n n n n n 
   24  108    1  7.603e-05  7.954e-04 10.5230 y n n n n n n n 
   25  120    1  9.397e-05  1.072e-03 10.5230 y n n n n n n n 
   26  132    1  1.438e-04  1.701e-03 10.5230 y n n n n n n n 
   27  144    2  1.778e-04  2.122e-03 10.5230 y y n n n n n n 
   28  156    3  6.598e-04  7.915e-03 10.5230 y y n n n y n n 
   29  168    3  5.394e-03  6.473e-02 10.5230 y y n n n y n n 
   30  180    3  3.462e-03  4.154e-02 10.5230 y y n n n y n n 
   31  192    3  2.178e-03  2.614e-02 10.5230 y y n n n y n n 
   32  200    3  1.904e-03  2.285e-02 10.5230 y y n n n y n n 
   33   24    5  1.096e-03  1.315e-02 10.5230 y y y y n y n n Subspace collapsed.
   34   36    5  1.113e-03  1.335e-02 10.5230 y y y y n y n n 
   35   48    6  7.545e-04  9.054e-03 10.5230 y y y y n y n n 
   36   60    7  6.770e-04  8.124e-03 10.5230 y y y y n y y n 
   37   72    7  5.472e-04  6.566e-03 10.5230 y y y y n y y n 
   38   84    8  4.514e-04  5.417e-03 10.5230 y y y y y y y n 
   39   96    8  3.164e-04  3.797e-03 10.5230 y y y y y y y n 
   40  108    8  2.729e-04  3.275e-03 10.5230 y y y y y y y n 
   41  120    8  2.124e-04  2.548e-03 10.5230 y y y y y y y n 
   42  132    8  1.758e-04  2.109e-03 10.5230 y y y y y y y n 
   43  144    8  1.295e-04  1.554e-03 10.5230 y y y y y y y n 
   44  156    8  9.602e-05  1.152e-03 10.5230 y y y y y y y n 
   45  168    9  7.487e-05  8.984e-04 10.5230 y y y y y y y n 
   46  180    9  7.515e-05  9.018e-04 10.5230 y y y y y y y n 
   47  192    9  5.025e-05  6.030e-04 10.5230 y y y y y y y n 
   48  192    9  5.025e-05  6.030e-04 10.5230 y y y y y y y n 
   49  200    9  4.684e-05  5.621e-04 10.5230 y y y y y y y n 
   50   24   10  2.858e-05  3.429e-04 10.5230 y y y y y y y n Subspace collapsed.
   51   35    9  2.913e-05  3.496e-04 10.5230 y y y y y y y n 
   52   46    9  2.655e-05  3.186e-04 10.5230 y y y y y y y n 
   53   57   10  2.439e-05  2.926e-04 10.5230 y y y y y y y n 
   54   68   11  1.838e-05  2.206e-04 10.5230 y y y y y y y y 
   55   78   11  1.544e-05  1.853e-04 10.5230 y y y y y y y y 
   56   88   11  1.083e-05  1.300e-04 10.5230 y y y y y y y y 
   57   98   11  7.898e-06  9.477e-05 10.5230 y y y y y y y y 
   58  108   11  6.564e-06  7.876e-05 10.5230 y y y y y y y y 
   59  111   11  6.562e-06  7.874e-05 10.5230 y y y y y y y y 
   60  114   11  6.506e-06  7.807e-05 10.5230 y y y y y y y y 
   61  117   11  6.609e-06  7.930e-05 10.5230 y y y y y y y y 
   62  120   11  6.696e-06  8.035e-05 10.5230 y y y y y y y y 
   63  129   11  6.054e-06  7.265e-05 10.5230 y y y y y y y y 
   64  138   11  5.033e-06  6.040e-05 10.5230 y y y y y y y y 
   65  146   11  4.341e-06  5.209e-05 10.5230 y y y y y y y y 
   66  154   11  3.659e-06  4.391e-05 10.5230 y y y y y y y y 
   67  162   11  2.684e-06  3.221e-05 10.5230 y y y y y y y y 
   68  170   11  2.234e-06  2.680e-05 10.5230 y y y y y y y y 
   69  178   11  1.875e-06  2.250e-05 10.5230 y y y y y y y y 
   70  186   11  1.333e-06  1.600e-05 10.5230 y y y y y y y y 
   71  194   11  8.134e-07  9.760e-06 10.5230 y y y y y y y y 
   72  200   11  6.673e-07  8.007e-06 10.5230 y y y y y y y y 
   73   19   11  3.829e-07  4.595e-06 10.5230 y y y y y y y y Subspace collapsed.
   74   26   11  3.892e-07  4.670e-06 10.5230 y y y y y y y y 
   75   33   11  2.849e-07  3.419e-06 10.5230 y y y y y y y y 
   76   40   11  2.220e-07  2.664e-06 10.5230 y y y y y y y y 
   77   47   11  1.543e-07  1.852e-06 10.5230 y y y y y y y y 
   78   53   11  1.229e-07  1.475e-06 10.5230 y y y y y y y y 
   79   58   11  9.091e-08  1.091e-06 10.5230 y y y y y y y y 
   80   63   12  7.133e-08  8.559e-07 10.5230 y y y y y y y y Converged.
--------------------------------------------------------------------------------
  Davidson Summary: 
 ------------------------------------------------------------
  State  0: excitation energy =  10.5230 a.u.   (converged)
  State  1: excitation energy =  10.5316 a.u.   (converged)
  State  2: excitation energy =  10.5499 a.u.   (converged)
  State  3: excitation energy =  10.5610 a.u.   (converged)
  State  4: excitation energy =  10.5644 a.u.   (converged)
  State  5: excitation energy =  10.5658 a.u.   (converged)
  State  6: excitation energy =  10.5782 a.u.   (converged)
  State  7: excitation energy =  10.5926 a.u.   (converged)
  State  8: excitation energy =  10.5948 a.u.   (converged)
  State  9: excitation energy =  10.5964 a.u.   (converged)
  State 10: excitation energy =  10.6021 a.u.   (converged)
  State 11: excitation energy =  10.6021 a.u.   (converged)
 ------------------------------------------------------------


--------------------------------------------------------------------------------
                             Excited State Summary
--------------------------------------------------------------------------------
--------------------------------------------------------------------------------

  Excited state  1 (singlet, A)                                    [converged]
  ----------------------------------------------------------------------------
  Term symbol:  2 (1) A                                     R^2 =  1.10283e-11

  Total energy:                                           -215.3294756002 a.u.
  Excitation energy:                                             286.345930 eV

  Osc. strength:                                                      0.039588
  Trans. dip. moment [a.u.]:           [   0.000000,   -0.000000,    0.075121]
  <i|r^2|0> [a.u.]:                    [  -0.000000,    0.000000,    0.000000]


  V1^2 = 0.7617, V2^2 = 0.2383

  Important amplitudes:
     core i     occ j       vir a       vir b          v   
    --------------------------------------------------------
     5 (A) A               29 (A) A                  0.3925
     5 (A) A               34 (A) A                 -0.2760
    --------------------------------------------------------
  ----------------------------------------------------------------------------


  Excited state  2 (singlet, A)                                    [converged]
  ----------------------------------------------------------------------------
  Term symbol:  3 (1) A                                     R^2 =  9.28278e-12

  Total energy:                                           -215.3209437834 a.u.
  Excitation energy:                                             286.578093 eV

  Osc. strength:                                                      0.035295
  Trans. dip. moment [a.u.]:           [   0.000000,    0.000000,   -0.070901]
  <i|r^2|0> [a.u.]:                    [  -0.000000,   -0.000000,   -0.000000]


  V1^2 = 0.7659, V2^2 = 0.2341

  Important amplitudes:
     core i     occ j       vir a       vir b          v   
    --------------------------------------------------------
     4 (A) A               29 (A) A                  0.4923
     4 (A) A               34 (A) A                 -0.1898
    --------------------------------------------------------
  ----------------------------------------------------------------------------


  Excited state  3 (singlet, A)                                    [converged]
  ----------------------------------------------------------------------------
  Term symbol:  4 (1) A                                     R^2 =  8.08325e-12

  Total energy:                                           -215.3026053116 a.u.
  Excitation energy:                                             287.077108 eV

  Osc. strength:                                                      0.045868
  Trans. dip. moment [a.u.]:           [   0.000000,    0.000000,    0.080757]
  <i|r^2|0> [a.u.]:                    [  -0.000000,   -0.000000,   -0.000000]


  V1^2 = 0.7716, V2^2 = 0.2284

  Important amplitudes:
     core i     occ j       vir a       vir b          v   
    --------------------------------------------------------
     3 (A) A               29 (A) A                 -0.5259
     3 (A) A               34 (A) A                 -0.1681
    --------------------------------------------------------
  ----------------------------------------------------------------------------


  Excited state  4 (singlet, A)                                    [converged]
  ----------------------------------------------------------------------------
  Term symbol:  5 (1) A                                     R^2 =  4.56198e-11

  Total energy:                                           -215.2915053511 a.u.
  Excitation energy:                                             287.379153 eV

  Osc. strength:                                                      0.001210
  Trans. dip. moment [a.u.]:           [  -0.013108,   -0.000225,    0.000000]
  <i|r^2|0> [a.u.]:                    [   0.040603,   -0.006138,    0.001366]


  V1^2 = 0.7339, V2^2 = 0.2661

  Important amplitudes:
     core i     occ j       vir a       vir b          v   
    --------------------------------------------------------
     5 (A) A               19 (A) A                  0.4548
     5 (A) A               21 (A) A                 -0.2829
    --------------------------------------------------------
  ----------------------------------------------------------------------------


  Excited state  5 (singlet, A)                                    [converged]
  ----------------------------------------------------------------------------
  Term symbol:  6 (1) A                                     R^2 =  4.83310e-11

  Total energy:                                           -215.2880634022 a.u.
  Excitation energy:                                             287.472814 eV

  Osc. strength:                                                      0.005342
  Trans. dip. moment [a.u.]:           [  -0.002738,    0.027405,    0.000000]
  <i|r^2|0> [a.u.]:                    [  -0.023472,   -0.117734,   -0.004377]


  V1^2 = 0.7465, V2^2 = 0.2535

  Important amplitudes:
     core i     occ j       vir a       vir b          v   
    --------------------------------------------------------
     4 (A) A               19 (A) A                 -0.5062
     4 (A) A               20 (A) A                  0.1727
    --------------------------------------------------------
  ----------------------------------------------------------------------------


  Excited state  6 (singlet, A)                                    [converged]
  ----------------------------------------------------------------------------
  Term symbol:  7 (1) A                                     R^2 =  8.31181e-12

  Total energy:                                           -215.2867291356 a.u.
  Excitation energy:                                             287.509121 eV

  Osc. strength:                                                      0.006223
  Trans. dip. moment [a.u.]:           [  -0.000000,    0.000000,    0.029724]
  <i|r^2|0> [a.u.]:                    [   0.000000,   -0.000000,    0.000000]


  V1^2 = 0.7308, V2^2 = 0.2692

  Important amplitudes:
     core i     occ j       vir a       vir b          v   
    --------------------------------------------------------
     5 (A) A               29 (A) A                 -0.3602
     5 (A) A               34 (A) A                 -0.2945
    --------------------------------------------------------
  ----------------------------------------------------------------------------


  Excited state  7 (singlet, A)                                    [converged]
  ----------------------------------------------------------------------------
  Term symbol:  8 (1) A                                     R^2 =  6.37789e-11

  Total energy:                                           -215.2743414541 a.u.
  Excitation energy:                                             287.846207 eV

  Osc. strength:                                                      0.003830
  Trans. dip. moment [a.u.]:           [   0.018429,    0.014262,   -0.000000]
  <i|r^2|0> [a.u.]:                    [  -0.065974,   -0.039058,   -0.004427]


  V1^2 = 0.7416, V2^2 = 0.2584

  Important amplitudes:
     core i     occ j       vir a       vir b          v   
    --------------------------------------------------------
     5 (A) A               21 (A) A                  0.3228
     5 (A) A               20 (A) A                  0.3224
    --------------------------------------------------------
  ----------------------------------------------------------------------------


  Excited state  8 (singlet, A)                                    [converged]
  ----------------------------------------------------------------------------
  Term symbol:  9 (1) A                                     R^2 =  3.23685e-10

  Total energy:                                           -215.2598902657 a.u.
  Excitation energy:                                             288.239444 eV

  Osc. strength:                                                      0.002169
  Trans. dip. moment [a.u.]:           [  -0.011743,    0.013008,    0.000000]
  <i|r^2|0> [a.u.]:                    [  -0.030436,   -0.055560,   -0.006755]


  V1^2 = 0.7419, V2^2 = 0.2581

  Important amplitudes:
     core i     occ j       vir a       vir b          v   
    --------------------------------------------------------
     4 (A) A               20 (A) A                  0.4503
     4 (A) A               19 (A) A                  0.1944
    --------------------------------------------------------
  ----------------------------------------------------------------------------


  Excited state  9 (singlet, A)                                    [converged]
  ----------------------------------------------------------------------------
  Term symbol:  10 (1) A                                    R^2 =  3.05683e-10

  Total energy:                                           -215.2577325209 a.u.
  Excitation energy:                                             288.298159 eV

  Osc. strength:                                                      0.000598
  Trans. dip. moment [a.u.]:           [  -0.006543,   -0.006470,   -0.000000]
  <i|r^2|0> [a.u.]:                    [   0.014089,    0.018106,    0.003627]


  V1^2 = 0.7360, V2^2 = 0.2640

  Important amplitudes:
     core i     occ j       vir a       vir b          v   
    --------------------------------------------------------
     5 (A) A               20 (A) A                  0.4054
     5 (A) A               21 (A) A                 -0.3435
    --------------------------------------------------------
  ----------------------------------------------------------------------------


  Excited state 10 (singlet, A)                                    [converged]
  ----------------------------------------------------------------------------
  Term symbol:  11 (1) A                                    R^2 =  1.42211e-10

  Total energy:                                           -215.2560900199 a.u.
  Excitation energy:                                             288.342854 eV

  Osc. strength:                                                      0.002300
  Trans. dip. moment [a.u.]:           [  -0.000000,   -0.000000,   -0.018044]
  <i|r^2|0> [a.u.]:                    [   0.000000,    0.000000,    0.000000]


  V1^2 = 0.7165, V2^2 = 0.2835

  Important amplitudes:
     core i     occ j       vir a       vir b          v   
    --------------------------------------------------------
     4 (A) A               22 (A) A                 -0.3407
     4 (A) A               34 (A) A                 -0.3260
    --------------------------------------------------------
  ----------------------------------------------------------------------------


  Excited state 11 (singlet, A)                                    [converged]
  ----------------------------------------------------------------------------
  Term symbol:  12 (1) A                                    R^2 =  7.95113e-11

  Total energy:                                           -215.2504141297 a.u.
  Excitation energy:                                             288.497302 eV

  Osc. strength:                                                      0.002319
  Trans. dip. moment [a.u.]:           [  -0.000000,   -0.000000,   -0.018113]
  <i|r^2|0> [a.u.]:                    [   0.000000,    0.000000,    0.000000]


  V1^2 = 0.7373, V2^2 = 0.2627

  Important amplitudes:
     core i     occ j       vir a       vir b          v   
    --------------------------------------------------------
     5 (A) A               22 (A) A                 -0.4898
     5 (A) A               27 (A) A                 -0.2485
    --------------------------------------------------------
  ----------------------------------------------------------------------------


  Excited state 12 (singlet, A)                                    [converged]
  ----------------------------------------------------------------------------
  Term symbol:  13 (1) A                                    R^2 =  8.55939e-07

  Total energy:                                           -215.2503721440 a.u.
  Excitation energy:                                             288.498445 eV

  Osc. strength:                                                      0.004449
  Trans. dip. moment [a.u.]:           [   0.002639,    0.024949,    0.000000]
  <i|r^2|0> [a.u.]:                    [   0.006839,    0.104531,    0.003332]


  V1^2 = 0.7378, V2^2 = 0.2622

  Important amplitudes:
     core i     occ j       vir a       vir b          v   
    --------------------------------------------------------
     3 (A) A               19 (A) A                  0.4967
     3 (A) A               21 (A) A                 -0.2082
    --------------------------------------------------------
  ----------------------------------------------------------------------------


--------------------------------------------------------------------------------
  Time of ADC calculation:  CPU 136485.08 s  wall 11091.90 s
================================================================================
 
 --------------------------------------------------------------
 
                    Orbital Energies (a.u.)
 --------------------------------------------------------------
 
 Alpha MOs
 -- Occupied --
-15.624 -15.545 -11.295 -11.259 -11.241  -1.346  -1.170  -1.009
 -0.832  -0.803  -0.762  -0.611  -0.605  -0.602  -0.572  -0.438
 -0.403  -0.320
 -- Virtual --
  0.044   0.054   0.074   0.081   0.087   0.093   0.108   0.117
  0.119   0.126   0.171   0.184   0.193   0.197   0.201   0.225
  0.243   0.255   0.265   0.296   0.301   0.318   0.324   0.333
  0.340   0.352   0.360   0.389   0.404   0.417   0.429   0.446
  0.472   0.472   0.488   0.492   0.521   0.531   0.539   0.541
  0.562   0.590   0.596   0.653   0.654   0.668   0.672   0.684
  0.714   0.734   0.736   0.738   0.786   0.824   0.847   0.847
  0.873   0.894   0.910   0.914   0.922   0.976   0.996   1.010
  1.039   1.070   1.081   1.111   1.113   1.127   1.164   1.179
  1.191   1.216   1.221   1.224   1.263   1.268   1.309   1.322
  1.348   1.387   1.401   1.409   1.409   1.484   1.500   1.520
  1.521   1.549   1.554   1.612   1.642   1.647   1.675   1.728
  1.780   1.783   1.814   1.827   1.874   1.920   1.989   2.001
  2.012   2.032   2.056   2.096   2.114   2.140   2.153   2.206
  2.220   2.310   2.326   2.348   2.359   2.411   2.458   2.580
  2.632   2.635   2.670   2.682   2.689   2.742   2.788   2.790
  2.838   2.863   2.931   2.953   2.966   3.048   3.073   3.112
  3.137   3.225   3.256   3.280   3.319   3.331   3.362   3.411
  3.418   3.422   3.482   3.495   3.510   3.556   3.581   3.598
  3.601   3.617   3.684   3.690   3.727   3.776   3.796   3.822
  3.850   3.869   3.869   3.905   3.927   4.006   4.024   4.024
  4.084   4.120   4.175   4.188   4.209   4.389   4.437   4.460
  4.546   4.663   4.725   4.728   4.867   4.973   5.038   5.061
  5.126   5.154   5.214   5.288   5.312   5.343   5.394   5.516
  5.572   5.605   5.654   5.716   5.727   5.760   5.802   5.834
  5.887   5.906   5.991   6.099   6.161   6.304   6.420   6.450
  6.502   6.644   6.934  11.942  13.376  14.220  14.868  15.144
 --------------------------------------------------------------
 
          Ground-State Mulliken Net Atomic Charges

     Atom                 Charge (a.u.)
  ----------------------------------------
      1 C                    -0.017544
      2 C                     0.081654
      3 C                     0.103763
      4 N                     0.043878
      5 N                    -0.099584
      6 H                     0.099776
      7 H                    -0.098368
      8 H                    -0.054474
      9 H                    -0.059100
  ----------------------------------------
  Sum of atomic charges =    -0.000000

 -----------------------------------------------------------------
                    Cartesian Multipole Moments
 -----------------------------------------------------------------
    Charge (ESU x 10^10)
                -0.0000
    Dipole Moment (Debye)
         X      -3.8086      Y       0.8864      Z      -0.0000
       Tot       3.9104
    Quadrupole Moments (Debye-Ang)
        XX     -26.0305     XY       3.4605     YY     -26.4284
        XZ       0.0000     YZ      -0.0000     ZZ     -32.5713
    Octopole Moments (Debye-Ang^2)
       XXX     -16.0209    XXY       5.2159    XYY      -5.9633
       YYY      -2.9222    XXZ      -0.0000    XYZ      -0.0000
       YYZ       0.0000    XZZ      -0.7412    YZZ      -2.0836
       ZZZ      -0.0000
    Hexadecapole Moments (Debye-Ang^3)
      XXXX    -140.6576   XXXY      11.0996   XXYY     -57.0824
      XYYY       2.8322   YYYY    -156.9244   XXXZ       0.0000
      XXYZ      -0.0000   XYYZ       0.0000   YYYZ      -0.0000
      XXZZ     -37.4339   XYZZ      -0.3159   YYZZ     -41.0059
      XZZZ       0.0000   YZZZ      -0.0000   ZZZZ     -37.1401
 -----------------------------------------------------------------
Archival summary:
1\1\n775\SP\HF\BasisUnspecified\234\x_thofr\ThuMar2812:09:062019ThuMar2812:09:062019\0\\#,HF,BasisUnspecified,\\0,1\N\H,1,1.00277\C,1,1.3573,2,126.241\H,3,1.07133,1,122.416,2,-0,0\N,3,1.31684,1,111.545,2,-180,0\C,1,1.36623,2,126.2,3,-180,0\H,6,1.06967,1,122.472,2,-0,0\C,5,1.367,3,105.081,1,-0,0\H,8,1.07112,5,121.685,3,-180,0\\HF=-224.891556\\@

 Total job time:  11151.39s(wall), 137001.15s(cpu) 
 Thu Mar 28 12:09:06 2019

        *************************************************************
        *                                                           *
        *  Thank you very much for using Q-Chem.  Have a nice day.  *
        *                                                           *
        *************************************************************


0 sent ACK to 0 
now end server 0 ... 
