mFile = /home/x_iubru/qchem_exe/bin/mpi/machines
Process 0 of 1 is on n1979 - thread support 0
initial socket setup ...start
initial socket setup ...done 
now start server 0 ... 
Q-Chem Developer Version!
                  Welcome to Q-Chem
     A Quantum Leap Into The Future Of Chemistry


 Q-Chem 5.1, Q-Chem, Inc., Pleasanton, CA (2018)

 Yihan Shao,  Zhengting Gan,  E. Epifanovsky,  A. T. B. Gilbert,  M. Wormit,  
 J. Kussmann,  A. W. Lange,  A. Behn,  Jia Deng,  Xintian Feng,  D. Ghosh,  
 M. Goldey,  P. R. Horn,  L. D. Jacobson,  I. Kaliman,  T. Kus,  A. Landau,  
 Jie Liu,  E. I. Proynov,  R. M. Richard,  R. P. Steele,  E. J. Sundstrom,  
 H. L. Woodcock III,  P. M. Zimmerman,  D. Zuev,  B. Albrecht,  E. Alguire,  
 S. A. Baeppler,  D. Barton,  Z. Benda,  Y. A. Bernard,  E. J. Berquist,  
 K. B. Bravaya,  H. Burton,  D. Casanova,  Chun-Min Chang,  Yunqing Chen,  
 A. Chien,  K. D. Closser,  M. P. Coons,  S. Coriani,  S. Dasgupta,  
 A. L. Dempwolff,  M. Diedenhofen,  Hainam Do,  R. G. Edgar,  Po-Tung Fang,  
 S. Faraji,  S. Fatehi,  Qingguo Feng,  K. D. Fenk,  J. Fosso-Tande,  
 Qinghui Ge,  A. Ghysels,  G. Gidofalvi,  J. Gomes,  J. Gonthier,  A. Gunina,  
 D. Hait,  M. W. D. Hanson-Heine,  P. H. P. Harbach,  A. W. Hauser,  
 J. E. Herr,  E. G. Hohenstein,  Z. C. Holden,  Kerwin Hui,  B. C. Huynh,  
 T.-C. Jagau,  Hyunjun Ji,  B. Kaduk,  K. Khistyaev,  Jaehoon Kim,  
 P. Klunzinger,  K. Koh,  D. Kosenkov,  L. Koulias,  T. Kowalczyk,  
 C. M. Krauter,  A. Kunitsa,  Ka Un Lao,  A. Laurent,  K. V. Lawler,  
 Joonho Lee,  D. Lefrancois,  S. Lehtola,  D. S. Levine,  Yi-Pei Li,  
 You-Sheng Lin,  Fenglai Liu,  E. Livshits,  A. Luenser,  P. Manohar,  
 E. Mansoor,  S. F. Manzer,  Shan-Ping Mao,  Yuezhi Mao,  N. Mardirossian,  
 A. V. Marenich,  T. Markovich,  L. A. Martinez-Martinez,  S. A. Maurer,  
 N. J. Mayhall,  S. C. McKenzie,  J.-M. Mewes,  A. F. Morrison,  
 J. W. Mullinax,  K. Nanda,  T. S. Nguyen-Beck,  R. Olivares-Amaya,  
 J. A. Parkhill,  T. M. Perrine,  F. Plasser,  P. Pokhilko,  S. Prager,  
 A. Prociuk,  E. Ramos,  D. R. Rehn,  F. Rob,  M. Schneider,  N. Sergueev,  
 S. M. Sharada,  S. Sharma,  D. W. Small,  T. Stauch,  T. Stein,  
 Yu-Chuan Su,  A. J. W. Thom,  A. Tkatchenko,  T. Tsuchimochi,  N. M. Tubman,  
 L. Vogt,  M. L. Vidal,  O. Vydrov,  M. A. Watson,  J. Wenzel,  
 M. de Wergifosse,  T. A. Wesolowski,  A. White,  J. Witte,  A. Yamada,  
 Jun Yang,  K. Yao,  S. Yeganeh,  S. R. Yost,  Zhi-Qiang You,  A. Zech,  
 Igor Ying Zhang,  Xing Zhang,  Yan Zhao,  Ying Zhu,  B. R. Brooks,  
 G. K. L. Chan,  C. J. Cramer,  M. S. Gordon,  W. J. Hehre,  A. Klamt,  
 M. W. Schmidt,  C. D. Sherrill,  D. G. Truhlar,  A. Aspuru-Guzik,  R. Baer,  
 A. T. Bell,  N. A. Besley,  Jeng-Da Chai,  A. E. DePrince, III,  
 R. A. DiStasio Jr.,  A. Dreuw,  B. D. Dunietz,  T. R. Furlani,  
 Chao-Ping Hsu,  Yousung Jung,  Jing Kong,  D. S. Lambrecht,  WanZhen Liang,  
 C. Ochsenfeld,  V. A. Rassolov,  L. V. Slipchenko,  J. E. Subotnik,  
 T. Van Voorhis,  J. M. Herbert,  A. I. Krylov,  P. M. W. Gill,  M. Head-Gordon

 Contributors to earlier versions of Q-Chem not listed above: 
 R. D. Adamson,  B. Austin,  J. Baker,  G. J. O. Beran,  K. Brandhorst,  
 S. T. Brown,  E. F. C. Byrd,  A. K. Chakraborty,  C.-L. Cheng,  
 Siu Hung Chien,  D. M. Chipman,  D. L. Crittenden,  H. Dachsel,  
 R. J. Doerksen,  A. D. Dutoi,  L. Fusti-Molnar,  W. A. Goddard III,  
 A. Golubeva-Zadorozhnaya,  S. R. Gwaltney,  G. Hawkins,  A. Heyden,  
 S. Hirata,  G. Kedziora,  F. J. Keil,  C. Kelley,  Jihan Kim,  R. A. King,  
 R. Z. Khaliullin,  P. P. Korambath,  W. Kurlancheek,  A. M. Lee,  M. S. Lee,  
 S. V. Levchenko,  Ching Yeh Lin,  D. Liotard,  R. C. Lochan,  I. Lotan,  
 P. E. Maslen,  N. Nair,  D. P. O'Neill,  D. Neuhauser,  E. Neuscamman,  
 C. M. Oana,  R. Olson,  B. Peters,  R. Peverati,  P. A. Pieniazek,  
 Y. M. Rhee,  J. Ritchie,  M. A. Rohrdanz,  E. Rosta,  N. J. Russ,  
 H. F. Schaefer III,  N. E. Schultz,  N. Shenvi,  A. C. Simmonett,  A. Sodt,  
 D. Stuck,  K. S. Thanthiriwatte,  V. Vanovschi,  Tao Wang,  A. Warshel,  
 C. F. Williams,  Q. Wu,  X. Xu,  W. Zhang

 Please cite Q-Chem as follows:
 Y. Shao et al., Mol. Phys. 113, 184-215 (2015)
 DOI: 10.1080/00268976.2014.952696

 Q-Chem 5.1.1 for Intel X86 EM64T Linux

 Parts of Q-Chem use Armadillo 8.300.2 (Tropical Shenanigans).
 http://arma.sourceforge.net/

 Q-Chem begins on Fri May 24 17:06:26 2019  

Host: n1979
0

     Scratch files written to /scratch/local/qchem55526//
 Parallel job on  1  processors
Input Ideriv = 2
Curr. Ideriv = -1
Max.  Ideriv = 2

Checking the input file for inconsistencies... 	...done.

--------------------------------------------------------------
User input:
--------------------------------------------------------------
$molecule
0 1
C        0.000000    0.000000    0.141734
F        0.000000    1.058749   -0.632048
F       -0.000000   -1.058749   -0.632048
O        0.000000    0.000000    1.315807
$end

$rem
method				cvs-adc(2)-x
ee_singlets			10
basis				gen
purecart			1111
cc_symmetry			false
symmetry			false
threads				30
mem_total			90000
mem_static			2000
adc_davidson_maxsubspace	200
adc_davidson_maxiter		500
cc_rest_occ			4
$end

$basis
****
C     0 
aug-cc-pVTZ
****
F     0
cc-pVTZ
****
O     0
aug-cc-pVTZ
****
$end
--------------------------------------------------------------
 ----------------------------------------------------------------
             Standard Nuclear Orientation (Angstroms)
    I     Atom           X                Y                Z
 ----------------------------------------------------------------
    1      C       0.0000000000     0.0000000000     0.1417341250
    2      F       1.0587490000     0.0000000000    -0.6320478750
    3      F      -1.0587490000    -0.0000000000    -0.6320478750
    4      O       0.0000000000     0.0000000000     1.3158071250
 ----------------------------------------------------------------
 Molecular Point Group                 C2v   NOp =  4
 Largest Abelian Subgroup              C2v   NOp =  4
 Nuclear Repulsion Energy =   119.8297185104 hartrees
 There are       16 alpha and       16 beta electrons
 Requested basis set is non-standard
 There are 48 shells and 152 basis functions

 Total QAlloc Memory Limit  90000 MB
 Mega-Array Size      1956 MB
 MEM_STATIC part      2000 MB

                       Distance Matrix (Angstroms)
             C (  1)   F (  2)   F (  3)
   F (  2)  1.311369
   F (  3)  1.311369  2.117498
   O (  4)  1.174073  2.217000  2.217000
 
 A cutoff of  1.0D-11 yielded   1165 shell pairs
 There are     11861 function pairs (     16713 Cartesian)
 
 -------------------------------------------------------
 OpenMP Integral Computing Module                       
 Release: version 1.0, May 2013, Q-Chem Inc. Pittsburgh 
 -------------------------------------------------------
 Integral Job Info:
 Integral job number is                      11
 Integral operator is                         1
 short-range coefficients                     0
 long-range coefficients              100000000
 Omega coefficients                           0
 if combine SR and LR in K                    0
 Integral screening is                        0
 Integral computing path is                   2
 max size of driver memory is            800000
 size of driver memory is                776718
 size of scratch memory is              6691272
 max col of scratch BK array              10000
 max len of scratch array in speh3          662
 max len of scratch index in speh4           32
 max int batch size is                      520
 min int batch size is                       52
 fixed nKL is                                52
 max L of basis functions is                  3
 order of int derivative is                   0
 number of shells is                         48
 number of basis is                         180
 number of cartesian basis is               180
 number of contracted shell pairs          1165
 number of primitive shell pairs           4466
 maxK2 (contraction) of shell pair           64
 max number of K2 of shell pair               1
 max number of CS2 of shell pair            108
 max number of PS2 of shell pair            384
 mem total for path MDJ                  576424
 -------------------------------------------------------
 Smallest overlap matrix eigenvalue = 4.19E-04

 Scale SEOQF with 1.000000e-01/1.000000e-01/1.000000e-01

 Standard Electronic Orientation quadrupole field applied
 Nucleus-field energy     =    -0.0000000015 hartrees
 Guess MOs from core Hamiltonian diagonalization
 A restricted Hartree-Fock SCF calculation will be
 performed using Pulay DIIS extrapolation
 SCF converges when DIIS error is below 1.0E-08
 using 30 threads for integral computing
 -------------------------------------------------------
 OpenMP Integral computing Module                
 Release: version 2.0, May 2017, Q-Chem Inc. Pleasanton 
 -------------------------------------------------------
 ---------------------------------------
  Cycle       Energy         DIIS Error
 ---------------------------------------
    1    -267.6048913038      1.81E-01
    2    -231.4923478153      9.74E-02
    3    -279.3217112786      9.40E-02
    4    -302.6990270600      5.52E-02
    5    -310.8537981103      2.22E-02
    6    -311.5793428498      1.03E-02
    7    -311.7263429875      2.47E-03
    8    -311.7357706440      1.26E-03
    9    -311.7394111089      2.43E-04
   10    -311.7396117389      5.95E-05
   11    -311.7396347853      1.90E-05
   12    -311.7396385781      7.15E-06
   13    -311.7396389646      1.89E-06
   14    -311.7396389795      3.60E-07
   15    -311.7396389801      6.41E-08
   16    -311.7396389801      1.23E-08
   17    -311.7396389801      1.71E-09 Convergence criterion met
 ---------------------------------------
 SCF time:  CPU 92.76 s  wall 3.39 s
 SCF   energy in the final basis set = -311.73963898
 Total energy in the final basis set = -311.73963898
================================================================================
|                                                                              |
|                                 A D C  M A N                                 |
|                                                                              |
 ------------------------------------------------------------------------------ 
|                                                                              |
| Components:                                                                  |
|                                                                              |
| - libvmm - 1.3-trunk                                                         |
|   Authors:                                                                   |
|   Evgeny Epifanovsky, Ilya Kaliman                                           |
|                                                                              |
| - libtensor - 2.5-trunk                                                      |
|   Authors:                                                                   |
|   Evgeny Epifanovsky, Michael Wormit, Dmitry Zuev, Sam Manzer,               |
|   Ilya Kaliman                                                               |
|                                                                              |
| - libwfa - 1.1-beta                                                          |
|   Authors:                                                                   |
|   Felix Plasser, Stefanie Baeppler, Benjamin Thomitzni, Michael Wormit       |
|                                                                              |
| - libadc - 1.1-trunk                                                         |
|   Authors:                                                                   |
|   Michael Wormit, Adrian L. Dempwolff, Philipp H. P. Harbach,                |
|   Caroline Krauter, Dirk Rehn, Matthias Schneider, Jan Wenzel                |
|                                                                              |
| - adcman - 2.6-trunk                                                         |
|   Authors:                                                                   |
|   Michael Wormit, Adrian L. Dempwolff, Philipp H. P. Harbach,                |
|   Caroline Krauter, Daniel Lefrancois, Jan-Michael Mewes, Dirk Rehn,         |
|   Matthias Schneider, Jan Wenzel, Andreas Dreuw                              |
|                                                                              |
| Authors of earlier versions of ADCMAN:                                       |
| Andreas Dreuw, Jan Hendrik Starcke, Dirk Rehn, Michael Wormit                |
|                                                                              |
================================================================================

 

--------------------------------------------------------------------------------
                                   HF Summary                                   
--------------------------------------------------------------------------------
  Energy:                                                 -311.7396389801 a.u.
  Dip. moment [a.u.]:                  [  -0.000000,   -0.000000,   -0.489929]
  Total dipole [Debye]:                                               1.245275
  <r^2> [a.u.]:                        [  87.836172,   13.871920,   93.007882]
  Total <r^2> [a.u.]:                                               194.715974
--------------------------------------------------------------------------------

--------------------------------------------------------------------------------
                                 MP(2) Summary                                  
--------------------------------------------------------------------------------
  MP energy contribution:                                   -0.9437837041 a.u.
  Total energy:                                           -312.6834226842 a.u.
  Dip. moment [a.u.]:                  [  -0.000000,   -0.000000,   -0.411213]
  Total dipole [Debye]:                                               1.045200
  <r^2> [a.u.]:                        [  87.642546,   14.094668,   92.526405]
  Total <r^2> [a.u.]:                                               194.263619
--------------------------------------------------------------------------------
  Starting Davidson for singlet states of irrep A ... 
--------------------------------------------------------------------------------
   It NVec Conv  Avg. Norm  Max. Norm  Conv. states           Remark
--------------------------------------------------------------------------------
        10    0  3.311e-01  1.090e+00 11.1446 n n n n n n n n Guess.
    1   20    0  1.951e-01  9.797e-01 10.7598 n n n n n n n n 
    2   30    0  7.476e-02  4.385e-01 10.7152 n n n n n n n n 
    3   40    0  2.742e-02  1.546e-01 10.7096 n n n n n n n n 
    4   50    0  1.725e-02  1.067e-01 10.7084 n n n n n n n n 
    5   60    0  1.358e-02  1.057e-01 10.7082 n n n n n n n n 
    6   70    0  2.324e-02  2.101e-01 10.7081 n n n n n n n n 
    7   80    0  9.436e-03  7.950e-02 10.7081 n n n n n n n n 
    8   90    0  5.219e-03  4.199e-02 10.7081 n n n n n n n n 
    9  100    0  2.182e-02  2.169e-01 10.7081 n n n n n n n n 
   10  110    0  9.684e-03  9.378e-02 10.7081 n n n n n n n n 
   11  120    0  3.939e-03  3.704e-02 10.7081 n n n n n n n n 
   12  130    0  1.472e-03  1.370e-02 10.7081 n n n n n n n n 
   13  140    0  6.547e-04  6.078e-03 10.7081 n n n n n n n n 
   14  150    1  2.413e-04  2.237e-03 10.7081 y n n n n n n n 
   15  160    2  9.301e-05  8.612e-04 10.7081 y y n n n n n n 
   16  170    3  3.458e-05  3.187e-04 10.7081 y y n y n n n n 
   17  180    4  1.451e-05  1.337e-04 10.7081 y y n y n y n n 
   18  190    6  6.246e-06  5.778e-05 10.7081 y y y y n y n n 
   19  200    8  2.646e-06  2.466e-05 10.7081 y y y y y y n n 
   20   20    8  1.148e-06  1.076e-05 10.7081 y y y y y y n n Subspace collapsed.
   21   30    8  7.494e-07  7.060e-06 10.7081 y y y y y y n n 
   22   40    9  3.102e-07  2.939e-06 10.7081 y y y y y y y n 
   23   50    9  1.570e-07  1.490e-06 10.7081 y y y y y y y n 
   24   60   10  6.342e-08  6.020e-07 10.7081 y y y y y y y y Converged.
--------------------------------------------------------------------------------
  Davidson Summary: 
 ------------------------------------------------------------
  State  0: excitation energy =  10.7081 a.u.   (converged)
  State  1: excitation energy =  10.8474 a.u.   (converged)
  State  2: excitation energy =  10.9350 a.u.   (converged)
  State  3: excitation energy =  10.9427 a.u.   (converged)
  State  4: excitation energy =  10.9447 a.u.   (converged)
  State  5: excitation energy =  10.9653 a.u.   (converged)
  State  6: excitation energy =  10.9745 a.u.   (converged)
  State  7: excitation energy =  10.9842 a.u.   (converged)
  State  8: excitation energy =  11.0253 a.u.   (converged)
  State  9: excitation energy =  11.0309 a.u.   (converged)
 ------------------------------------------------------------


--------------------------------------------------------------------------------
                             Excited State Summary
--------------------------------------------------------------------------------
--------------------------------------------------------------------------------

  Excited state 1 (singlet, A)                                     [converged]
  ----------------------------------------------------------------------------
  Term symbol:  2 (1) A                                     R^2 =  6.09163e-12

  Total energy:                                           -301.9752833141 a.u.
  Excitation energy:                                             291.383291 eV

  Osc. strength:                                                      0.079169
  Trans. dip. moment [a.u.]:           [  -0.000000,   -0.105309,    0.000000]
  <i|r^2|0> [a.u.]:                    [   0.000000,    0.000000,    0.000000]


  V1^2 = 0.8022, V2^2 = 0.1978

  Important amplitudes:
     core i     occ j       vir a       vir b          v   
    --------------------------------------------------------
     4 (A) A               21 (A) A                  0.5695
     4 (A) A               24 (A) A                  0.2287
    --------------------------------------------------------
  ----------------------------------------------------------------------------


  Excited state 2 (singlet, A)                                     [converged]
  ----------------------------------------------------------------------------
  Term symbol:  3 (1) A                                     R^2 =  4.34769e-11

  Total energy:                                           -301.8359929864 a.u.
  Excitation energy:                                             295.173574 eV

  Osc. strength:                                                      0.006713
  Trans. dip. moment [a.u.]:           [   0.000000,   -0.000000,   -0.030468]
  <i|r^2|0> [a.u.]:                    [  -0.009143,   -0.019903,    0.008509]


  V1^2 = 0.7806, V2^2 = 0.2194

  Important amplitudes:
     core i     occ j       vir a       vir b          v   
    --------------------------------------------------------
     4 (A) A               17 (A) A                 -0.4619
     4 (A) A               28 (A) A                 -0.2567
    --------------------------------------------------------
  ----------------------------------------------------------------------------


  Excited state 3 (singlet, A)                                     [converged]
  ----------------------------------------------------------------------------
  Term symbol:  4 (1) A                                     R^2 =  2.12265e-09

  Total energy:                                           -301.7484500376 a.u.
  Excitation energy:                                             297.555739 eV

  Osc. strength:                                                      0.002496
  Trans. dip. moment [a.u.]:           [   0.000000,   -0.018506,    0.000000]
  <i|r^2|0> [a.u.]:                    [   0.000000,    0.000000,    0.000000]


  V1^2 = 0.7595, V2^2 = 0.2405

  Important amplitudes:
     core i     occ j       vir a       vir b          v   
    --------------------------------------------------------
     4 (A) A               18 (A) A                 -0.5913
     4 (A) A               24 (A) A                 -0.1268
    --------------------------------------------------------
  ----------------------------------------------------------------------------


  Excited state 4 (singlet, A)                                     [converged]
  ----------------------------------------------------------------------------
  Term symbol:  5 (1) A                                     R^2 =  9.74726e-10

  Total energy:                                           -301.7407214761 a.u.
  Excitation energy:                                             297.766043 eV

  Osc. strength:                                                      0.004402
  Trans. dip. moment [a.u.]:           [   0.000000,    0.000000,   -0.024565]
  <i|r^2|0> [a.u.]:                    [  -0.004934,   -0.008282,    0.008567]


  V1^2 = 0.7559, V2^2 = 0.2441

  Important amplitudes:
     core i     occ j       vir a       vir b          v   
    --------------------------------------------------------
     4 (A) A               19 (A) A                  0.4979
     4 (A) A               17 (A) A                  0.2556
    --------------------------------------------------------
  ----------------------------------------------------------------------------


  Excited state 5 (singlet, A)                                     [converged]
  ----------------------------------------------------------------------------
  Term symbol:  6 (1) A                                     R^2 =  1.55957e-08

  Total energy:                                           -301.7387393457 a.u.
  Excitation energy:                                             297.819980 eV

  Osc. strength:                                                      0.010449
  Trans. dip. moment [a.u.]:           [  -0.037842,    0.000000,    0.000000]
  <i|r^2|0> [a.u.]:                    [  -0.000000,   -0.000000,   -0.000000]


  V1^2 = 0.7579, V2^2 = 0.2421

  Important amplitudes:
     core i     occ j       vir a       vir b          v   
    --------------------------------------------------------
     4 (A) A               20 (A) A                  0.5683
     4 (A) A               31 (A) A                  0.1958
    --------------------------------------------------------
  ----------------------------------------------------------------------------


  Excited state 6 (singlet, A)                                     [converged]
  ----------------------------------------------------------------------------
  Term symbol:  7 (1) A                                     R^2 =  1.22361e-09

  Total energy:                                           -301.7180911430 a.u.
  Excitation energy:                                             298.381846 eV

  Osc. strength:                                                      0.007784
  Trans. dip. moment [a.u.]:           [   0.000000,    0.000000,   -0.032632]
  <i|r^2|0> [a.u.]:                    [  -0.010051,   -0.017358,    0.007667]


  V1^2 = 0.7747, V2^2 = 0.2253

  Important amplitudes:
     core i     occ j       vir a       vir b          v   
    --------------------------------------------------------
     4 (A) A               19 (A) A                 -0.3121
     4 (A) A               28 (A) A                 -0.2886
    --------------------------------------------------------
  ----------------------------------------------------------------------------


  Excited state 7 (singlet, A)                                     [converged]
  ----------------------------------------------------------------------------
  Term symbol:  8 (1) A                                     R^2 =  1.98289e-07

  Total energy:                                           -301.7089247168 a.u.
  Excitation energy:                                             298.631277 eV

  Osc. strength:                                                      0.061374
  Trans. dip. moment [a.u.]:           [  -0.091589,    0.000000,   -0.000000]
  <i|r^2|0> [a.u.]:                    [   0.000000,    0.000000,    0.000000]


  V1^2 = 0.6551, V2^2 = 0.3449

  Important amplitudes:
     core i     occ j       vir a       vir b          v   
    --------------------------------------------------------
     4 (A) A               35 (A) A                  0.3419
     4 (A) A               31 (A) A                  0.2997
    --------------------------------------------------------
  ----------------------------------------------------------------------------


  Excited state 8 (singlet, A)                                     [converged]
  ----------------------------------------------------------------------------
  Term symbol:  9 (1) A                                     R^2 =  6.01992e-07

  Total energy:                                           -301.6992263435 a.u.
  Excitation energy:                                             298.895183 eV

  Osc. strength:                                                      0.015939
  Trans. dip. moment [a.u.]:           [   0.046654,    0.000000,    0.000000]
  <i|r^2|0> [a.u.]:                    [  -0.000000,   -0.000000,   -0.000000]


  V1^2 = 0.1669, V2^2 = 0.8331

  Important amplitudes:
     core i     occ j       vir a       vir b          v   
    --------------------------------------------------------
     4 (A) B   16 (A) A    21 (A) A    21 (A) B     -0.3355
     4 (A) A               35 (A) A                 -0.1658
    --------------------------------------------------------
  ----------------------------------------------------------------------------


  Excited state 9 (singlet, A)                                     [converged]
  ----------------------------------------------------------------------------
  Term symbol:  10 (1) A                                    R^2 =  8.20949e-09

  Total energy:                                           -301.6581377763 a.u.
  Excitation energy:                                             300.013260 eV

  Osc. strength:                                                      0.000277
  Trans. dip. moment [a.u.]:           [  -0.000000,   -0.000000,   -0.006144]
  <i|r^2|0> [a.u.]:                    [  -0.008640,   -0.009724,   -0.007261]


  V1^2 = 0.7540, V2^2 = 0.2460

  Important amplitudes:
     core i     occ j       vir a       vir b          v   
    --------------------------------------------------------
     4 (A) A               22 (A) A                 -0.5647
     4 (A) A               28 (A) A                 -0.1500
    --------------------------------------------------------
  ----------------------------------------------------------------------------


  Excited state 10 (singlet, A)                                     [converged]
  ----------------------------------------------------------------------------
  Term symbol:  11 (1) A                                    R^2 =  1.19219e-08

  Total energy:                                           -301.6524825435 a.u.
  Excitation energy:                                             300.167147 eV

  Osc. strength:                                                      0.000915
  Trans. dip. moment [a.u.]:           [   0.000000,   -0.011152,   -0.000000]
  <i|r^2|0> [a.u.]:                    [  -0.000000,   -0.000000,    0.000000]


  V1^2 = 0.6921, V2^2 = 0.3079

  Important amplitudes:
     core i     occ j       vir a       vir b          v   
    --------------------------------------------------------
     4 (A) A               24 (A) A                 -0.4920
     4 (A) A               21 (A) A                  0.2527
    --------------------------------------------------------
  ----------------------------------------------------------------------------


--------------------------------------------------------------------------------
  Time of ADC calculation:  CPU 12062.91 s  wall 702.38 s
================================================================================
 
 --------------------------------------------------------------
             Orbital Energies (a.u.) and Symmetries
 --------------------------------------------------------------
 
 Alpha MOs, Restricted
 -- Occupied --                  
-26.392 -26.392 -20.620 -11.534  -1.763  -1.686  -1.477  -0.958
  1 B1    1 A1    2 A1    3 A1    4 A1    2 B1    5 A1    6 A1                 
 -0.865  -0.817  -0.806  -0.727  -0.705  -0.704  -0.576  -0.558
  3 B1    1 B2    7 A1    1 A2    4 B1    8 A1    2 B2    5 B1                 
 -- Virtual --                   
  0.064   0.079   0.085   0.090   0.153   0.180   0.195   0.207
  9 A1    3 B2   10 A1    6 B1    4 B2   11 A1    7 B1    5 B2                 
  0.258   0.318   0.319   0.371   0.391   0.415   0.421   0.455
 12 A1    2 A2   13 A1   14 A1    6 B2   15 A1    8 B1    9 B1                 
  0.464   0.513   0.547   0.611   0.715   0.728   0.757   0.825
  7 B2   16 A1   10 B1   17 A1    3 A2   18 A1   19 A1   11 B1                 
  0.828   0.912   0.929   0.947   0.982   0.984   1.047   1.047
  8 B2   12 B1   20 A1   13 B1    9 B2   21 A1    4 A2   22 A1                 
  1.104   1.126   1.168   1.199   1.232   1.240   1.256   1.285
  5 A2   10 B2   11 B2   14 B1   23 A1   12 B2   15 B1   24 A1                 
  1.364   1.405   1.426   1.513   1.569   1.646   1.875   2.050
 25 A1   13 B2    6 A2   26 A1   27 A1   16 B1   17 B1   18 B1                 
  2.130   2.167   2.175   2.188   2.239   2.283   2.284   2.301
 28 A1    7 A2   19 B1   14 B2   29 A1   15 B2   30 A1    8 A2                 
  2.467   2.473   2.478   2.523   2.605   2.672   2.714   2.745
 31 A1   20 B1   16 B2   21 B1   32 A1   22 B1   17 B2    9 A2                 
  2.786   2.824   2.832   2.865   2.866   2.918   3.035   3.048
 33 A1   18 B2   23 B1   34 A1   10 A2   35 A1   19 B2   24 B1                 
  3.342   3.349   3.390   3.435   3.530   3.684   3.729   3.775
 11 A2   36 A1   25 B1   20 B2   37 A1   21 B2   26 B1   38 A1                 
  3.927   3.929   4.004   4.077   4.180   4.256   4.341   5.089
 12 A2   22 B2   39 A1   27 B1   40 A1   28 B1   41 A1   23 B2                 
  5.095   5.265   5.327   5.403   5.483   5.821   6.540   6.545
 29 B1   42 A1   24 B2   13 A2   43 A1   30 B1   44 A1   31 B1                 
  6.545   6.677   6.783   6.958   6.960   7.073   7.073   7.074
 25 B2   32 B1   14 A2   26 B2   45 A1   33 B1   46 A1   15 A2                 
  7.226   7.308   7.313   7.349   7.363   7.370   7.396   7.423
 47 A1   16 A2   27 B2   34 B1   48 A1   35 B1   17 A2   49 A1                 
  7.471   7.621   7.643   7.675   7.679   7.773   7.943   7.955
 28 B2   50 A1   36 B1   29 B2   51 A1   30 B2   18 A2   52 A1                 
  8.024   8.724   8.919   8.993   9.052   9.108   9.422   9.433
 37 B1   38 B1   19 A2   39 B1   53 A1   31 B2   32 B2   20 A2                 
  9.482   9.642   9.713   9.730  12.619  12.763  13.690  15.790
 54 A1   40 B1   41 B1   55 A1   42 B1   56 A1   57 A1   58 A1                 
 
 Beta MOs, Restricted
 -- Occupied --                  
-26.392 -26.392 -20.620 -11.534  -1.763  -1.686  -1.477  -0.958
  1 B1    1 A1    2 A1    3 A1    4 A1    2 B1    5 A1    6 A1                 
 -0.865  -0.817  -0.806  -0.727  -0.705  -0.704  -0.576  -0.558
  3 B1    1 B2    7 A1    1 A2    4 B1    8 A1    2 B2    5 B1                 
 -- Virtual --                   
  0.064   0.079   0.085   0.090   0.153   0.180   0.195   0.207
  9 A1    3 B2   10 A1    6 B1    4 B2   11 A1    7 B1    5 B2                 
  0.258   0.318   0.319   0.371   0.391   0.415   0.421   0.455
 12 A1    2 A2   13 A1   14 A1    6 B2   15 A1    8 B1    9 B1                 
  0.464   0.513   0.547   0.611   0.715   0.728   0.757   0.825
  7 B2   16 A1   10 B1   17 A1    3 A2   18 A1   19 A1   11 B1                 
  0.828   0.912   0.929   0.947   0.982   0.984   1.047   1.047
  8 B2   12 B1   20 A1   13 B1    9 B2   21 A1    4 A2   22 A1                 
  1.104   1.126   1.168   1.199   1.232   1.240   1.256   1.285
  5 A2   10 B2   11 B2   14 B1   23 A1   12 B2   15 B1   24 A1                 
  1.364   1.405   1.426   1.513   1.569   1.646   1.875   2.050
 25 A1   13 B2    6 A2   26 A1   27 A1   16 B1   17 B1   18 B1                 
  2.130   2.167   2.175   2.188   2.239   2.283   2.284   2.301
 28 A1    7 A2   19 B1   14 B2   29 A1   15 B2   30 A1    8 A2                 
  2.467   2.473   2.478   2.523   2.605   2.672   2.714   2.745
 31 A1   20 B1   16 B2   21 B1   32 A1   22 B1   17 B2    9 A2                 
  2.786   2.824   2.832   2.865   2.866   2.918   3.035   3.048
 33 A1   18 B2   23 B1   34 A1   10 A2   35 A1   19 B2   24 B1                 
  3.342   3.349   3.390   3.435   3.530   3.684   3.729   3.775
 11 A2   36 A1   25 B1   20 B2   37 A1   21 B2   26 B1   38 A1                 
  3.927   3.929   4.004   4.077   4.180   4.256   4.341   5.089
 12 A2   22 B2   39 A1   27 B1   40 A1   28 B1   41 A1   23 B2                 
  5.095   5.265   5.327   5.403   5.483   5.821   6.540   6.545
 29 B1   42 A1   24 B2   13 A2   43 A1   30 B1   44 A1   31 B1                 
  6.545   6.677   6.783   6.958   6.960   7.073   7.073   7.074
 25 B2   32 B1   14 A2   26 B2   45 A1   33 B1   46 A1   15 A2                 
  7.226   7.308   7.313   7.349   7.363   7.370   7.396   7.423
 47 A1   16 A2   27 B2   34 B1   48 A1   35 B1   17 A2   49 A1                 
  7.471   7.621   7.643   7.675   7.679   7.773   7.943   7.955
 28 B2   50 A1   36 B1   29 B2   51 A1   30 B2   18 A2   52 A1                 
  8.024   8.724   8.919   8.993   9.052   9.108   9.422   9.433
 37 B1   38 B1   19 A2   39 B1   53 A1   31 B2   32 B2   20 A2                 
  9.482   9.642   9.713   9.730  12.619  12.763  13.690  15.790
 54 A1   40 B1   41 B1   55 A1   42 B1   56 A1   57 A1   58 A1                 
 --------------------------------------------------------------
 
          Ground-State Mulliken Net Atomic Charges

     Atom                 Charge (a.u.)
  ----------------------------------------
      1 C                     0.511137
      2 F                    -0.094557
      3 F                    -0.094557
      4 O                    -0.322023
  ----------------------------------------
  Sum of atomic charges =     0.000000

 -----------------------------------------------------------------
                    Cartesian Multipole Moments
 -----------------------------------------------------------------
    Charge (ESU x 10^10)
                 0.0000
    Dipole Moment (Debye)
         X      -0.0000      Y      -0.0000      Z      -1.2453
       Tot       1.2453
    Quadrupole Moments (Debye-Ang)
        XX     -21.2280     XY      -0.0000     YY     -18.6582
        XZ       0.0000     YZ      -0.0000     ZZ     -23.4532
    Octopole Moments (Debye-Ang^2)
       XXX       0.0000    XXY      -0.0000    XYY       0.0000
       YYY      -0.0000    XXZ      -1.4440    XYZ      -0.0000
       YYZ      -1.8888    XZZ      -0.0000    YZZ       0.0000
       ZZZ      -9.5378
    Hexadecapole Moments (Debye-Ang^3)
      XXXX     -77.8969   XXXY      -0.0000   XXYY     -15.1778
      XYYY      -0.0000   YYYY     -12.9019   XXXZ       0.0000
      XXYZ      -0.0000   XYYZ      -0.0000   YYYZ       0.0000
      XXZZ     -29.0637   XYZZ      -0.0000   YYZZ     -17.9063
      XZZZ       0.0000   YZZZ       0.0000   ZZZZ     -98.8242
 -----------------------------------------------------------------
Archival summary:
1\1\n1979\SP\HF\BasisUnspecified\211\x_thofr\FriMay2417:19:022019FriMay2417:19:022019\0\\#,HF,BasisUnspecified,\\0,1\C\O,1,1.17407\F,1,1.31137,2,126.161\F,1,1.31137,2,126.161,3,180,0\\HF=-311.739639\\@

 Total job time:  756.75s(wall), 12223.25s(cpu) 
 Fri May 24 17:19:02 2019

        *************************************************************
        *                                                           *
        *  Thank you very much for using Q-Chem.  Have a nice day.  *
        *                                                           *
        *************************************************************


0 sent ACK to 0 
now end server 0 ... 
