mFile = /home/x_iubru/qchem_exe/bin/mpi/machines
Process 0 of 1 is on n838 - thread support 0
initial socket setup ...start
initial socket setup ...done 
now start server 0 ... 
Q-Chem Developer Version!
                  Welcome to Q-Chem
     A Quantum Leap Into The Future Of Chemistry


 Q-Chem 5.1, Q-Chem, Inc., Pleasanton, CA (2018)

 Yihan Shao,  Zhengting Gan,  E. Epifanovsky,  A. T. B. Gilbert,  M. Wormit,  
 J. Kussmann,  A. W. Lange,  A. Behn,  Jia Deng,  Xintian Feng,  D. Ghosh,  
 M. Goldey,  P. R. Horn,  L. D. Jacobson,  I. Kaliman,  T. Kus,  A. Landau,  
 Jie Liu,  E. I. Proynov,  R. M. Richard,  R. P. Steele,  E. J. Sundstrom,  
 H. L. Woodcock III,  P. M. Zimmerman,  D. Zuev,  B. Albrecht,  E. Alguire,  
 S. A. Baeppler,  D. Barton,  Z. Benda,  Y. A. Bernard,  E. J. Berquist,  
 K. B. Bravaya,  H. Burton,  D. Casanova,  Chun-Min Chang,  Yunqing Chen,  
 A. Chien,  K. D. Closser,  M. P. Coons,  S. Coriani,  S. Dasgupta,  
 A. L. Dempwolff,  M. Diedenhofen,  Hainam Do,  R. G. Edgar,  Po-Tung Fang,  
 S. Faraji,  S. Fatehi,  Qingguo Feng,  K. D. Fenk,  J. Fosso-Tande,  
 Qinghui Ge,  A. Ghysels,  G. Gidofalvi,  J. Gomes,  J. Gonthier,  A. Gunina,  
 D. Hait,  M. W. D. Hanson-Heine,  P. H. P. Harbach,  A. W. Hauser,  
 J. E. Herr,  E. G. Hohenstein,  Z. C. Holden,  Kerwin Hui,  B. C. Huynh,  
 T.-C. Jagau,  Hyunjun Ji,  B. Kaduk,  K. Khistyaev,  Jaehoon Kim,  
 P. Klunzinger,  K. Koh,  D. Kosenkov,  L. Koulias,  T. Kowalczyk,  
 C. M. Krauter,  A. Kunitsa,  Ka Un Lao,  A. Laurent,  K. V. Lawler,  
 Joonho Lee,  D. Lefrancois,  S. Lehtola,  D. S. Levine,  Yi-Pei Li,  
 You-Sheng Lin,  Fenglai Liu,  E. Livshits,  A. Luenser,  P. Manohar,  
 E. Mansoor,  S. F. Manzer,  Shan-Ping Mao,  Yuezhi Mao,  N. Mardirossian,  
 A. V. Marenich,  T. Markovich,  L. A. Martinez-Martinez,  S. A. Maurer,  
 N. J. Mayhall,  S. C. McKenzie,  J.-M. Mewes,  A. F. Morrison,  
 J. W. Mullinax,  K. Nanda,  T. S. Nguyen-Beck,  R. Olivares-Amaya,  
 J. A. Parkhill,  T. M. Perrine,  F. Plasser,  P. Pokhilko,  S. Prager,  
 A. Prociuk,  E. Ramos,  D. R. Rehn,  F. Rob,  M. Schneider,  N. Sergueev,  
 S. M. Sharada,  S. Sharma,  D. W. Small,  T. Stauch,  T. Stein,  
 Yu-Chuan Su,  A. J. W. Thom,  A. Tkatchenko,  T. Tsuchimochi,  N. M. Tubman,  
 L. Vogt,  M. L. Vidal,  O. Vydrov,  M. A. Watson,  J. Wenzel,  
 M. de Wergifosse,  T. A. Wesolowski,  A. White,  J. Witte,  A. Yamada,  
 Jun Yang,  K. Yao,  S. Yeganeh,  S. R. Yost,  Zhi-Qiang You,  A. Zech,  
 Igor Ying Zhang,  Xing Zhang,  Yan Zhao,  Ying Zhu,  B. R. Brooks,  
 G. K. L. Chan,  C. J. Cramer,  M. S. Gordon,  W. J. Hehre,  A. Klamt,  
 M. W. Schmidt,  C. D. Sherrill,  D. G. Truhlar,  A. Aspuru-Guzik,  R. Baer,  
 A. T. Bell,  N. A. Besley,  Jeng-Da Chai,  A. E. DePrince, III,  
 R. A. DiStasio Jr.,  A. Dreuw,  B. D. Dunietz,  T. R. Furlani,  
 Chao-Ping Hsu,  Yousung Jung,  Jing Kong,  D. S. Lambrecht,  WanZhen Liang,  
 C. Ochsenfeld,  V. A. Rassolov,  L. V. Slipchenko,  J. E. Subotnik,  
 T. Van Voorhis,  J. M. Herbert,  A. I. Krylov,  P. M. W. Gill,  M. Head-Gordon

 Contributors to earlier versions of Q-Chem not listed above: 
 R. D. Adamson,  B. Austin,  J. Baker,  G. J. O. Beran,  K. Brandhorst,  
 S. T. Brown,  E. F. C. Byrd,  A. K. Chakraborty,  C.-L. Cheng,  
 Siu Hung Chien,  D. M. Chipman,  D. L. Crittenden,  H. Dachsel,  
 R. J. Doerksen,  A. D. Dutoi,  L. Fusti-Molnar,  W. A. Goddard III,  
 A. Golubeva-Zadorozhnaya,  S. R. Gwaltney,  G. Hawkins,  A. Heyden,  
 S. Hirata,  G. Kedziora,  F. J. Keil,  C. Kelley,  Jihan Kim,  R. A. King,  
 R. Z. Khaliullin,  P. P. Korambath,  W. Kurlancheek,  A. M. Lee,  M. S. Lee,  
 S. V. Levchenko,  Ching Yeh Lin,  D. Liotard,  R. C. Lochan,  I. Lotan,  
 P. E. Maslen,  N. Nair,  D. P. O'Neill,  D. Neuhauser,  E. Neuscamman,  
 C. M. Oana,  R. Olson,  B. Peters,  R. Peverati,  P. A. Pieniazek,  
 Y. M. Rhee,  J. Ritchie,  M. A. Rohrdanz,  E. Rosta,  N. J. Russ,  
 H. F. Schaefer III,  N. E. Schultz,  N. Shenvi,  A. C. Simmonett,  A. Sodt,  
 D. Stuck,  K. S. Thanthiriwatte,  V. Vanovschi,  Tao Wang,  A. Warshel,  
 C. F. Williams,  Q. Wu,  X. Xu,  W. Zhang

 Please cite Q-Chem as follows:
 Y. Shao et al., Mol. Phys. 113, 184-215 (2015)
 DOI: 10.1080/00268976.2014.952696

 Q-Chem 5.1.1 for Intel X86 EM64T Linux

 Parts of Q-Chem use Armadillo 8.300.2 (Tropical Shenanigans).
 http://arma.sourceforge.net/

 Q-Chem begins on Fri Feb 22 06:59:12 2019  

Host: n838
0

     Scratch files written to /scratch/local/qchem37726//
 Parallel job on  1  processors
Input Ideriv = 2
Curr. Ideriv = -1
Max.  Ideriv = 2

Checking the input file for inconsistencies... 	...done.

--------------------------------------------------------------
User input:
--------------------------------------------------------------
$molecule
0 1
 C     0.000000     0.000000    -0.663984
 C     0.000000     0.000000     0.663984
 H     0.000000     0.919796    -1.223061
 H     0.000000    -0.919796    -1.223061
 H     0.000000     0.919796     1.223061
 H     0.000000    -0.919796     1.223061
$end

$rem
method				cvs-adc(2)-x
ee_singlets			10
basis				gen
purecart			1111
cc_symmetry			false
symmetry			false
threads				30
mem_total			80000
mem_static			2000
adc_davidson_maxsubspace	200
adc_davidson_maxiter		500
cc_rest_occ			2
$end

$basis
****
C     0 
aug-cc-pVTZ
****
H     0 
cc-pVDZ
****
$end
--------------------------------------------------------------
 ----------------------------------------------------------------
             Standard Nuclear Orientation (Angstroms)
    I     Atom           X                Y                Z
 ----------------------------------------------------------------
    1      C       0.6639840000     0.0000000000    -0.0000000000
    2      C      -0.6639840000    -0.0000000000     0.0000000000
    3      H       1.2230610000     0.9197960000    -0.0000000000
    4      H       1.2230610000    -0.9197960000    -0.0000000000
    5      H      -1.2230610000     0.9197960000     0.0000000000
    6      H      -1.2230610000    -0.9197960000     0.0000000000
 ----------------------------------------------------------------
 Molecular Point Group                 D2h   NOp =  8
 Largest Abelian Subgroup              D2h   NOp =  8
 Nuclear Repulsion Energy =    33.5481666235 hartrees
 There are        8 alpha and        8 beta electrons
 Requested basis set is non-standard
 There are 40 shells and 112 basis functions

 Total QAlloc Memory Limit  80000 MB
 Mega-Array Size      1956 MB
 MEM_STATIC part      2000 MB

                       Distance Matrix (Angstroms)
             C (  1)   C (  2)   H (  3)   H (  4)   H (  5)
   C (  2)  1.327968
   H (  3)  1.076379  2.099277
   H (  4)  1.076379  2.099277  1.839592
   H (  5)  2.099277  1.076379  2.446122  3.060655
   H (  6)  2.099277  1.076379  3.060655  2.446122  1.839592
 
 A cutoff of  1.0D-11 yielded    820 shell pairs
 There are      6508 function pairs (      8821 Cartesian)
 
 -------------------------------------------------------
 OpenMP Integral Computing Module                       
 Release: version 1.0, May 2013, Q-Chem Inc. Pittsburgh 
 -------------------------------------------------------
 Integral Job Info:
 Integral job number is                      11
 Integral operator is                         1
 short-range coefficients                     0
 long-range coefficients              100000000
 Omega coefficients                           0
 if combine SR and LR in K                    0
 Integral screening is                        0
 Integral computing path is                   2
 max size of driver memory is            800000
 size of driver memory is                776718
 size of scratch memory is              6691272
 max col of scratch BK array              10000
 max len of scratch array in speh3          662
 max len of scratch index in speh4           32
 max int batch size is                      520
 min int batch size is                       52
 fixed nKL is                                52
 max L of basis functions is                  3
 order of int derivative is                   0
 number of shells is                         40
 number of basis is                         130
 number of cartesian basis is               130
 number of contracted shell pairs           820
 number of primitive shell pairs           3015
 maxK2 (contraction) of shell pair           64
 max number of K2 of shell pair               1
 max number of CS2 of shell pair            100
 max number of PS2 of shell pair            384
 mem total for path MDJ                  546996
 -------------------------------------------------------
 Smallest overlap matrix eigenvalue = 7.12E-05

 Scale SEOQF with 1.000000e-01/1.000000e-01/1.000000e-01

 Standard Electronic Orientation quadrupole field applied
 Nucleus-field energy     =     0.0000000006 hartrees
 Guess MOs from core Hamiltonian diagonalization
 A restricted Hartree-Fock SCF calculation will be
 performed using Pulay DIIS extrapolation
 SCF converges when DIIS error is below 1.0E-08
 using 30 threads for integral computing
 -------------------------------------------------------
 OpenMP Integral computing Module                
 Release: version 2.0, May 2017, Q-Chem Inc. Pleasanton 
 -------------------------------------------------------
 ---------------------------------------
  Cycle       Energy         DIIS Error
 ---------------------------------------
    1     -57.1674951657      1.15E-01
    2     -64.0413984260      5.12E-02
    3     -76.1551888315      3.43E-02
    4     -77.8100400700      1.14E-02
    5     -78.0569277954      8.49E-04
    6     -78.0592361275      2.35E-04
    7     -78.0593788770      4.15E-05
    8     -78.0593854695      4.90E-06
    9     -78.0593855735      8.64E-07
   10     -78.0593855763      1.33E-07
   11     -78.0593855761      1.44E-08
   12     -78.0593855761      2.81E-09 Convergence criterion met
 ---------------------------------------
 SCF time:  CPU 28.14 s  wall 0.99 s
 SCF   energy in the final basis set = -78.05938558
 Total energy in the final basis set = -78.05938558
================================================================================
|                                                                              |
|                                 A D C  M A N                                 |
|                                                                              |
 ------------------------------------------------------------------------------ 
|                                                                              |
| Components:                                                                  |
|                                                                              |
| - libvmm - 1.3-trunk                                                         |
|   Authors:                                                                   |
|   Evgeny Epifanovsky, Ilya Kaliman                                           |
|                                                                              |
| - libtensor - 2.5-trunk                                                      |
|   Authors:                                                                   |
|   Evgeny Epifanovsky, Michael Wormit, Dmitry Zuev, Sam Manzer,               |
|   Ilya Kaliman                                                               |
|                                                                              |
| - libwfa - 1.1-beta                                                          |
|   Authors:                                                                   |
|   Felix Plasser, Stefanie Baeppler, Benjamin Thomitzni, Michael Wormit       |
|                                                                              |
| - libadc - 1.1-trunk                                                         |
|   Authors:                                                                   |
|   Michael Wormit, Adrian L. Dempwolff, Philipp H. P. Harbach,                |
|   Caroline Krauter, Dirk Rehn, Matthias Schneider, Jan Wenzel                |
|                                                                              |
| - adcman - 2.6-trunk                                                         |
|   Authors:                                                                   |
|   Michael Wormit, Adrian L. Dempwolff, Philipp H. P. Harbach,                |
|   Caroline Krauter, Daniel Lefrancois, Jan-Michael Mewes, Dirk Rehn,         |
|   Matthias Schneider, Jan Wenzel, Andreas Dreuw                              |
|                                                                              |
| Authors of earlier versions of ADCMAN:                                       |
| Andreas Dreuw, Jan Hendrik Starcke, Dirk Rehn, Michael Wormit                |
|                                                                              |
================================================================================

 

--------------------------------------------------------------------------------
                                   HF Summary                                   
--------------------------------------------------------------------------------
  Energy:                                                  -78.0593855761 a.u.
  Dip. moment [a.u.]:                  [  -0.000000,   -0.000000,    0.000000]
  Total dipole [Debye]:                                               0.000000
  <r^2> [a.u.]:                        [  49.327019,   21.289908,   11.933830]
  Total <r^2> [a.u.]:                                                82.550757
--------------------------------------------------------------------------------

--------------------------------------------------------------------------------
                                 MP(2) Summary                                  
--------------------------------------------------------------------------------
  MP energy contribution:                                   -0.3568265960 a.u.
  Total energy:                                            -78.4162121721 a.u.
  Dip. moment [a.u.]:                  [  -0.000000,   -0.000000,    0.000000]
  Total dipole [Debye]:                                               0.000000
  <r^2> [a.u.]:                        [  49.300992,   21.194603,   11.739909]
  Total <r^2> [a.u.]:                                                82.235504
--------------------------------------------------------------------------------
  Starting Davidson for singlet states of irrep A ... 
--------------------------------------------------------------------------------
   It NVec Conv  Avg. Norm  Max. Norm  Conv. states           Remark
--------------------------------------------------------------------------------
        10    0  3.296e-01  1.053e+00 10.9889 n n n n n n n n Guess.
    1   20    0  1.826e-01  9.766e-01 10.5237 n n n n n n n n 
    2   30    0  5.637e-02  2.802e-01 10.4675 n n n n n n n n 
    3   40    0  1.842e-02  7.528e-02 10.4597 n n n n n n n n 
    4   50    0  1.514e-02  6.502e-02 10.4572 n n n n n n n n 
    5   60    0  1.011e-02  5.395e-02 10.4566 n n n n n n n n 
    6   70    0  7.045e-03  4.001e-02 10.4566 n n n n n n n n 
    7   80    0  3.970e-03  2.144e-02 10.4566 n n n n n n n n 
    8   90    0  1.583e-02  1.123e-01 10.4566 n n n n n n n n 
    9  100    0  1.390e-02  9.942e-02 10.4566 n n n n n n n n 
   10  110    0  2.266e-02  1.634e-01 10.4566 n n n n n n n n 
   11  120    0  1.011e-02  7.309e-02 10.4566 n n n n n n n n 
   12  130    0  5.184e-03  3.765e-02 10.4566 n n n n n n n n 
   13  140    0  3.112e-03  2.255e-02 10.4566 n n n n n n n n 
   14  150    0  1.526e-03  1.091e-02 10.4566 n n n n n n n n 
   15  160    0  5.449e-04  3.784e-03 10.4566 n n n n n n n n 
   16  170    0  1.976e-04  1.321e-03 10.4566 n n n n n n n n 
   17  180    2  7.501e-05  5.070e-04 10.4566 y y n n n n n n 
   18  190    2  3.252e-05  2.202e-04 10.4566 y y n n n n n n 
   19  200    2  1.541e-05  9.971e-05 10.4566 y y n n n n n n 
   20   20    2  7.230e-06  4.272e-05 10.4566 y y n n n n n n Subspace collapsed.
   21   30    2  4.353e-06  2.396e-05 10.4566 y y n n n n n n 
   22   40    3  1.884e-06  1.023e-05 10.4566 y y y n n n n n 
   23   50    4  9.034e-07  4.626e-06 10.4566 y y y y n n n n 
   24   60    4  4.199e-07  2.056e-06 10.4566 y y y y n n n n 
   25   70    8  2.318e-07  1.063e-06 10.4566 y y y y y n n y 
   26   80   10  1.342e-07  6.855e-07 10.4566 y y y y y y y y Converged.
--------------------------------------------------------------------------------
  Davidson Summary: 
 ------------------------------------------------------------
  State  0: excitation energy =  10.4566 a.u.   (converged)
  State  1: excitation energy =  10.4575 a.u.   (converged)
  State  2: excitation energy =  10.5510 a.u.   (converged)
  State  3: excitation energy =  10.5526 a.u.   (converged)
  State  4: excitation energy =  10.5697 a.u.   (converged)
  State  5: excitation energy =  10.5717 a.u.   (converged)
  State  6: excitation energy =  10.5743 a.u.   (converged)
  State  7: excitation energy =  10.5758 a.u.   (converged)
  State  8: excitation energy =  10.5923 a.u.   (converged)
  State  9: excitation energy =  10.5942 a.u.   (converged)
 ------------------------------------------------------------


--------------------------------------------------------------------------------
                             Excited State Summary
--------------------------------------------------------------------------------
--------------------------------------------------------------------------------

  Excited state 1 (singlet, A)                                     [converged]
  ----------------------------------------------------------------------------
  Term symbol:  2 (1) A                                     R^2 =  1.03603e-10

  Total energy:                                            -67.9596445878 a.u.
  Excitation energy:                                             284.537675 eV

  Osc. strength:                                                      0.080110
  Trans. dip. moment [a.u.]:           [   0.000000,    0.000000,    0.107200]
  <i|r^2|0> [a.u.]:                    [  -0.000000,    0.000000,    0.000000]


  V1^2 = 0.7626, V2^2 = 0.2374

  Important amplitudes:
     core i     occ j      vir a       vir b          v   
    -------------------------------------------------------
     2 (A) A              16 (A) A                  0.4593
     2 (A) A              12 (A) A                 -0.3751
    -------------------------------------------------------
  ----------------------------------------------------------------------------


  Excited state 2 (singlet, A)                                     [converged]
  ----------------------------------------------------------------------------
  Term symbol:  3 (1) A                                     R^2 =  8.07478e-11

  Total energy:                                            -67.9587615095 a.u.
  Excitation energy:                                             284.561705 eV

  Osc. strength:                                                      0.000000
  Trans. dip. moment [a.u.]:           [  -0.000000,   -0.000000,    0.000000]
  <i|r^2|0> [a.u.]:                    [  -0.000000,    0.000000,    0.000000]


  V1^2 = 0.7619, V2^2 = 0.2381

  Important amplitudes:
     core i     occ j      vir a       vir b          v   
    -------------------------------------------------------
     1 (A) A              16 (A) A                 -0.4593
     1 (A) A              12 (A) A                  0.3741
    -------------------------------------------------------
  ----------------------------------------------------------------------------


  Excited state 3 (singlet, A)                                     [converged]
  ----------------------------------------------------------------------------
  Term symbol:  4 (1) A                                     R^2 =  1.27636e-07

  Total energy:                                            -67.8652341879 a.u.
  Excitation energy:                                             287.106712 eV

  Osc. strength:                                                      0.007787
  Trans. dip. moment [a.u.]:           [  -0.033273,    0.000000,   -0.000000]
  <i|r^2|0> [a.u.]:                    [  -0.000000,   -0.000000,   -0.000000]


  V1^2 = 0.7475, V2^2 = 0.2525

  Important amplitudes:
     core i     occ j      vir a       vir b          v   
    -------------------------------------------------------
     2 (A) A              10 (A) A                  0.4848
     2 (A) A              15 (A) A                  0.2833
    -------------------------------------------------------
  ----------------------------------------------------------------------------


  Excited state 4 (singlet, A)                                     [converged]
  ----------------------------------------------------------------------------
  Term symbol:  5 (1) A                                     R^2 =  2.16784e-07

  Total energy:                                            -67.8635986642 a.u.
  Excitation energy:                                             287.151217 eV

  Osc. strength:                                                      0.000000
  Trans. dip. moment [a.u.]:           [  -0.000000,   -0.000000,   -0.000000]
  <i|r^2|0> [a.u.]:                    [   0.096610,    0.011984,    0.012705]


  V1^2 = 0.7478, V2^2 = 0.2522

  Important amplitudes:
     core i     occ j      vir a       vir b          v   
    -------------------------------------------------------
     1 (A) A              10 (A) A                 -0.4784
     1 (A) A              15 (A) A                 -0.2779
    -------------------------------------------------------
  ----------------------------------------------------------------------------


  Excited state 5 (singlet, A)                                     [converged]
  ----------------------------------------------------------------------------
  Term symbol:  6 (1) A                                     R^2 =  5.32503e-07

  Total energy:                                            -67.8464639166 a.u.
  Excitation energy:                                             287.617478 eV

  Osc. strength:                                                      0.000000
  Trans. dip. moment [a.u.]:           [   0.000000,   -0.000000,   -0.000000]
  <i|r^2|0> [a.u.]:                    [  -0.000000,   -0.000000,    0.000000]


  V1^2 = 0.7466, V2^2 = 0.2534

  Important amplitudes:
     core i     occ j      vir a       vir b          v   
    -------------------------------------------------------
     2 (A) A              11 (A) A                 -0.5616
     2 (A) A              20 (A) A                 -0.1802
    -------------------------------------------------------
  ----------------------------------------------------------------------------


  Excited state 6 (singlet, A)                                     [converged]
  ----------------------------------------------------------------------------
  Term symbol:  7 (1) A                                     R^2 =  5.89493e-07

  Total energy:                                            -67.8444675367 a.u.
  Excitation energy:                                             287.671802 eV

  Osc. strength:                                                      0.022042
  Trans. dip. moment [a.u.]:           [   0.000000,    0.055924,   -0.000000]
  <i|r^2|0> [a.u.]:                    [  -0.000000,   -0.000000,   -0.000000]


  V1^2 = 0.7461, V2^2 = 0.2539

  Important amplitudes:
     core i     occ j      vir a       vir b          v   
    -------------------------------------------------------
     1 (A) A              11 (A) A                  0.5611
     1 (A) A              20 (A) A                  0.1793
    -------------------------------------------------------
  ----------------------------------------------------------------------------


  Excited state 7 (singlet, A)                                     [converged]
  ----------------------------------------------------------------------------
  Term symbol:  8 (1) A                                     R^2 =  6.85491e-07

  Total energy:                                            -67.8419292657 a.u.
  Excitation energy:                                             287.740872 eV

  Osc. strength:                                                      0.000000
  Trans. dip. moment [a.u.]:           [   0.000000,    0.000000,   -0.000000]
  <i|r^2|0> [a.u.]:                    [   0.011592,    0.006817,    0.006940]


  V1^2 = 0.7324, V2^2 = 0.2676

  Important amplitudes:
     core i     occ j      vir a       vir b          v   
    -------------------------------------------------------
     2 (A) A               9 (A) A                  0.5252
     2 (A) A              17 (A) A                 -0.2038
    -------------------------------------------------------
  ----------------------------------------------------------------------------


  Excited state 8 (singlet, A)                                     [converged]
  ----------------------------------------------------------------------------
  Term symbol:  9 (1) A                                     R^2 =  5.57308e-07

  Total energy:                                            -67.8404306093 a.u.
  Excitation energy:                                             287.781652 eV

  Osc. strength:                                                      0.000202
  Trans. dip. moment [a.u.]:           [  -0.005346,    0.000000,   -0.000000]
  <i|r^2|0> [a.u.]:                    [   0.000000,    0.000000,    0.000000]


  V1^2 = 0.7330, V2^2 = 0.2670

  Important amplitudes:
     core i     occ j      vir a       vir b          v   
    -------------------------------------------------------
     1 (A) A               9 (A) A                 -0.5317
     1 (A) A              17 (A) A                  0.2080
    -------------------------------------------------------
  ----------------------------------------------------------------------------


  Excited state 9 (singlet, A)                                     [converged]
  ----------------------------------------------------------------------------
  Term symbol:  10 (1) A                                    R^2 =  3.63774e-07

  Total energy:                                            -67.8239183614 a.u.
  Excitation energy:                                             288.230973 eV

  Osc. strength:                                                      0.000000
  Trans. dip. moment [a.u.]:           [  -0.000000,   -0.000000,    0.000000]
  <i|r^2|0> [a.u.]:                    [  -0.000000,    0.000000,   -0.000000]


  V1^2 = 0.7413, V2^2 = 0.2587

  Important amplitudes:
     core i     occ j      vir a       vir b          v   
    -------------------------------------------------------
     2 (A) A              13 (A) A                  0.5965
     2 (A) A              32 (A) A                  0.0947
    -------------------------------------------------------
  ----------------------------------------------------------------------------


  Excited state 10 (singlet, A)                                     [converged]
  ----------------------------------------------------------------------------
  Term symbol:  11 (1) A                                    R^2 =  4.38985e-07

  Total energy:                                            -67.8219964526 a.u.
  Excitation energy:                                             288.283271 eV

  Osc. strength:                                                      0.010698
  Trans. dip. moment [a.u.]:           [  -0.000000,   -0.000000,    0.038919]
  <i|r^2|0> [a.u.]:                    [  -0.000000,   -0.000000,   -0.000000]


  V1^2 = 0.7409, V2^2 = 0.2591

  Important amplitudes:
     core i     occ j      vir a       vir b          v   
    -------------------------------------------------------
     1 (A) A              13 (A) A                  0.5960
     1 (A) A              32 (A) A                  0.0944
    -------------------------------------------------------
  ----------------------------------------------------------------------------


--------------------------------------------------------------------------------
  Time of ADC calculation:  CPU 6624.52 s  wall 465.06 s
================================================================================
 
 --------------------------------------------------------------
             Orbital Energies (a.u.) and Symmetries
 --------------------------------------------------------------
 
 Alpha MOs, Restricted
 -- Occupied --                  
-11.229 -11.227  -1.037  -0.794  -0.647  -0.589  -0.509  -0.378
  1 Ag    1 B3u   2 Ag    2 B3u   1 B2u   3 Ag    1 B1g   1 B1u                
 -- Virtual --                   
  0.056   0.076   0.085   0.093   0.102   0.111   0.118   0.179
  3 B3u   4 Ag    2 B2u   1 B2g   2 B1u   2 B1g   5 Ag    2 B2g                
  0.197   0.249   0.279   0.300   0.306   0.323   0.345   0.351
  4 B3u   6 Ag    1 B3g   3 B2u   5 B3u   7 Ag    6 B3u   4 B2u                
  0.363   0.379   0.382   0.385   0.415   0.490   0.504   0.569
  3 B1g   1 Au    8 Ag    3 B1u   3 B2g   7 B3u   4 B1g   4 B1u                
  0.603   0.682   0.733   0.735   0.744   0.768   0.785   0.817
  8 B3u   5 B2u   6 B2u   9 Ag    5 B1g  10 Ag    4 B2g   9 B3u                
  0.895   0.939   0.940   0.981   0.996   1.025   1.038   1.083
 11 Ag   10 B3u   2 B3g   6 B1g   5 B1u   6 B1u   2 Au    7 B2u                
  1.128   1.138   1.181   1.194   1.206   1.217   1.274   1.415
 12 Ag   11 B3u   3 B3g  13 Ag    5 B2g   6 B2g   7 B1g   8 B2u                
  1.497   1.567   1.578   1.626   1.629   1.730   1.805   1.847
 12 B3u   7 B1u   8 B1g  13 B3u   3 Au    7 B2g   9 B2u  14 Ag                 
  1.933   2.214   2.333   2.373   2.416   2.506   2.513   2.530
 14 B3u   8 B1u  15 B3u   9 B1g  15 Ag    4 B3g   4 Au   10 B2u                
  2.561   2.580   2.593   2.682   2.689   2.897   2.921   3.047
  9 B1u  16 Ag   16 B3u   8 B2g  11 B2u  10 B1g  17 Ag   18 Ag                 
  3.112   3.189   3.210   3.220   3.236   3.239   3.241   3.329
  9 B2g  12 B2u  11 B1g   5 B3g  10 B1u  17 B3u  19 Ag   12 B1g                
  3.351   3.424   3.439   3.533   3.542   3.577   3.693   3.758
 18 B3u  11 B1u  13 B2u   6 B3g  20 Ag    5 Au   10 B2g  19 B3u                
  3.779   3.898   4.012   4.015   4.145   4.165   4.291   4.727
 11 B2g  12 B1u  20 B3u  13 B1g   6 Au   14 B2u  21 Ag   15 B2u                
  4.787   4.840   4.861   4.904   5.210   5.609   9.254  13.900
 21 B3u  12 B2g  14 B1g  22 Ag   15 B1g  22 B3u  23 Ag   23 B3u                
 
 Beta MOs, Restricted
 -- Occupied --                  
-11.229 -11.227  -1.037  -0.794  -0.647  -0.589  -0.509  -0.378
  1 Ag    1 B3u   2 Ag    2 B3u   1 B2u   3 Ag    1 B1g   1 B1u                
 -- Virtual --                   
  0.056   0.076   0.085   0.093   0.102   0.111   0.118   0.179
  3 B3u   4 Ag    2 B2u   1 B2g   2 B1u   2 B1g   5 Ag    2 B2g                
  0.197   0.249   0.279   0.300   0.306   0.323   0.345   0.351
  4 B3u   6 Ag    1 B3g   3 B2u   5 B3u   7 Ag    6 B3u   4 B2u                
  0.363   0.379   0.382   0.385   0.415   0.490   0.504   0.569
  3 B1g   1 Au    8 Ag    3 B1u   3 B2g   7 B3u   4 B1g   4 B1u                
  0.603   0.682   0.733   0.735   0.744   0.768   0.785   0.817
  8 B3u   5 B2u   6 B2u   9 Ag    5 B1g  10 Ag    4 B2g   9 B3u                
  0.895   0.939   0.940   0.981   0.996   1.025   1.038   1.083
 11 Ag   10 B3u   2 B3g   6 B1g   5 B1u   6 B1u   2 Au    7 B2u                
  1.128   1.138   1.181   1.194   1.206   1.217   1.274   1.415
 12 Ag   11 B3u   3 B3g  13 Ag    5 B2g   6 B2g   7 B1g   8 B2u                
  1.497   1.567   1.578   1.626   1.629   1.730   1.805   1.847
 12 B3u   7 B1u   8 B1g  13 B3u   3 Au    7 B2g   9 B2u  14 Ag                 
  1.933   2.214   2.333   2.373   2.416   2.506   2.513   2.530
 14 B3u   8 B1u  15 B3u   9 B1g  15 Ag    4 B3g   4 Au   10 B2u                
  2.561   2.580   2.593   2.682   2.689   2.897   2.921   3.047
  9 B1u  16 Ag   16 B3u   8 B2g  11 B2u  10 B1g  17 Ag   18 Ag                 
  3.112   3.189   3.210   3.220   3.236   3.239   3.241   3.329
  9 B2g  12 B2u  11 B1g   5 B3g  10 B1u  17 B3u  19 Ag   12 B1g                
  3.351   3.424   3.439   3.533   3.542   3.577   3.693   3.758
 18 B3u  11 B1u  13 B2u   6 B3g  20 Ag    5 Au   10 B2g  19 B3u                
  3.779   3.898   4.012   4.015   4.145   4.165   4.291   4.727
 11 B2g  12 B1u  20 B3u  13 B1g   6 Au   14 B2u  21 Ag   15 B2u                
  4.787   4.840   4.861   4.904   5.210   5.609   9.254  13.900
 21 B3u  12 B2g  14 B1g  22 Ag   15 B1g  22 B3u  23 Ag   23 B3u                
 --------------------------------------------------------------
 
          Ground-State Mulliken Net Atomic Charges

     Atom                 Charge (a.u.)
  ----------------------------------------
      1 C                     0.191825
      2 C                     0.191825
      3 H                    -0.095912
      4 H                    -0.095912
      5 H                    -0.095912
      6 H                    -0.095912
  ----------------------------------------
  Sum of atomic charges =     0.000000

 -----------------------------------------------------------------
                    Cartesian Multipole Moments
 -----------------------------------------------------------------
    Charge (ESU x 10^10)
                 0.0000
    Dipole Moment (Debye)
         X      -0.0000      Y      -0.0000      Z       0.0000
       Tot       0.0000
    Quadrupole Moments (Debye-Ang)
        XX     -12.1952     XY       0.0000     YY     -12.3811
        XZ      -0.0000     YZ      -0.0000     ZZ     -16.0514
    Octopole Moments (Debye-Ang^2)
       XXX      -0.0000    XXY      -0.0000    XYY      -0.0000
       YYY      -0.0000    XXZ       0.0000    XYZ       0.0000
       YYZ       0.0000    XZZ       0.0000    YZZ      -0.0000
       ZZZ       0.0000
    Hexadecapole Moments (Debye-Ang^3)
      XXXX     -67.4941   XXXY      -0.0000   XXYY     -13.1231
      XYYY       0.0000   YYYY     -26.7635   XXXZ      -0.0000
      XXYZ      -0.0000   XYYZ       0.0000   YYYZ      -0.0000
      XXZZ     -15.6439   XYZZ       0.0000   YYZZ      -8.7208
      XZZZ      -0.0000   YZZZ      -0.0000   ZZZZ     -21.1136
 -----------------------------------------------------------------
Archival summary:
1\1\n838\SP\HF\BasisUnspecified\24\x_thofr\FriFeb2207:07:362019FriFeb2207:07:362019\0\\#,HF,BasisUnspecified,\\0,1\C\H,1,1.07638\H,1,1.07638,2,117.415\C,1,1.32797,2,121.292,3,-180,0\H,4,1.07638,1,121.292,2,-0,0\H,4,1.07638,1,121.292,2,-180,0\\HF=-78.0593856\\@

 Total job time:  504.53s(wall), 6706.63s(cpu) 
 Fri Feb 22 07:07:36 2019

        *************************************************************
        *                                                           *
        *  Thank you very much for using Q-Chem.  Have a nice day.  *
        *                                                           *
        *************************************************************


0 sent ACK to 0 
now end server 0 ... 
